HEADER
"PSFversion" "1.00"
"design" "(\"hw1\" \"CMOS_Inverter_180nm\" \"schematic\" \"\")"
"simulator" "hspiceS"
"temperature" "25"
"host" ""
"date" "Oct 19 16:04:19 2014"
"title" ""
"analysisList" "()"
END
