HEADER
"PSFversion" "1.00"
"Time Stamp" "Oct 19 16:04:19 2014"
TYPE
"variable" STRUCT(
"value" FLOAT DOUBLE
) PROP( "key" "element" )
VALUE
"R" "variable" ( 3 ) PROP( )
"WIDTH" "variable" ( 270e-9 ) PROP( )
"WIDTHN" "variable" ( 270e-9 ) PROP( )
"TEMPDC" "variable" ( 25 ) PROP( )
END
