HEADER
"PSFversion" "1.00"
"design" "(\"Wallace_MUL_Library\" \"Domino_OR\" \"schematic\" \"\")"
"simulator" "hspiceS"
"temperature" "25"
"host" ""
"date" "Oct 27 16:07:02 2014"
"title" ""
"analysisList" "()"
END
