HEADER
"PSFversion" "1.00"
"design" "(\"Proj_lib\" \"FF_Positive_edge\" \"schematic\" \"\")"
"simulator" "hspiceS"
"temperature" "25"
"host" ""
"date" "Dec  1 02:00:36 2014"
"title" ""
"analysisList" "()"
END
