HEADER
"PSFversion" "1.00"
"Time Stamp" "Oct 24 23:56:46 2014"
TYPE
"variable" STRUCT(
"value" FLOAT DOUBLE
) PROP( "key" "element" )
VALUE
"TEMPDC" "variable" ( 25 ) PROP( )
END
