HEADER
"PSFversion" "1.00"
"design" "(\"jhalak_lib\" \"InverterTest\" \"schematic\" \"\")"
"simulator" "hspiceS"
"temperature" "25"
"host" ""
"date" "Oct 18 21:13:09 2014"
"title" ""
"analysisList" "()"
END
