HEADER
"PSFversion" "1.00"
"Av" "A"
"Outv" "Out"
"net11v" "net11"
"Bv" "B"
