HEADER
"PSFversion" "1.00"
"In_0v" "In<0>"
"In_1v" "In<1>"
"Out_0v" "Out<0>"
"Out_1v" "Out<1>"
"1v" "7"
"2v" "8"
"3v" "9"
