HEADER
"PSFversion" "1.00"
"In<0>v" "In_0"
"In<1>v" "In_1"
"Out<0>v" "Out_0"
"Out<1>v" "Out_1"
"7v" "1"
"8v" "2"
"9v" "3"
