HEADER
"PSFversion" "1.00"
"XI25v" "I25"
"XI25n" "Proj_lib_Inverter_180nm_schematic"
"XI24v" "I24"
"XI24n" "Proj_lib_Inverter_180nm_schematic"
"XI23v" "I23"
"XI23n" "Proj_lib_Inverter_180nm_schematic"
"XI22v" "I22"
"XI22n" "Proj_lib_Inverter_180nm_schematic"
"XI17v" "I17"
"XI17n" "Proj_lib_Inverter_180nm_schematic"
"XI16v" "I16"
"XI16n" "Proj_lib_TSPC_FF_PositiveEdge_schematic"
"XI15v" "I15"
"XI15n" "Proj_lib_TSPC_FF_PositiveEdge_schematic"
"XI14v" "I14"
"XI14n" "Proj_lib_TSPC_FF_PositiveEdge_schematic"
"XI13v" "I13"
"XI13n" "Proj_lib_TSPC_FF_PositiveEdge_schematic"
"XI12v" "I12"
"XI12n" "Proj_lib_TSPC_FF_PositiveEdge_schematic"
"XI11v" "I11"
"XI11n" "Proj_lib_TSPC_FF_PositiveEdge_schematic"
"XI10v" "I10"
"XI10n" "Proj_lib_TSPC_FF_PositiveEdge_schematic"
"XI9v" "I9"
"XI9n" "Proj_lib_TSPC_FF_PositiveEdge_schematic"
"XI8v" "I8"
"XI8n" "Proj_lib_TSPC_FF_PositiveEdge_schematic"
"XI7v" "I7"
"XI7n" "Proj_lib_TSPC_FF_PositiveEdge_schematic"
"XI6v" "I6"
"XI6n" "Proj_lib_TSPC_FF_PositiveEdge_schematic"
"XI5v" "I5"
"XI5n" "Proj_lib_TSPC_FF_PositiveEdge_schematic"
"XI4v" "I4"
"XI4n" "Proj_lib_TSPC_FF_PositiveEdge_schematic"
"XI3v" "I3"
"XI3n" "Proj_lib_TSPC_FF_PositiveEdge_schematic"
"XI2v" "I2"
"XI2n" "Proj_lib_TSPC_FF_PositiveEdge_schematic"
"XI0v" "I0"
"XI0n" "Proj_lib_TSPC_FF_PositiveEdge_schematic"
