HEADER
"PSFversion" "1.00"
"I25v" "XI25"
"I25n" "Proj_lib_Inverter_180nm_schematic"
"I24v" "XI24"
"I24n" "Proj_lib_Inverter_180nm_schematic"
"I23v" "XI23"
"I23n" "Proj_lib_Inverter_180nm_schematic"
"I22v" "XI22"
"I22n" "Proj_lib_Inverter_180nm_schematic"
"I17v" "XI17"
"I17n" "Proj_lib_Inverter_180nm_schematic"
"I16v" "XI16"
"I16n" "Proj_lib_TSPC_FF_PositiveEdge_schematic"
"I15v" "XI15"
"I15n" "Proj_lib_TSPC_FF_PositiveEdge_schematic"
"I14v" "XI14"
"I14n" "Proj_lib_TSPC_FF_PositiveEdge_schematic"
"I13v" "XI13"
"I13n" "Proj_lib_TSPC_FF_PositiveEdge_schematic"
"I12v" "XI12"
"I12n" "Proj_lib_TSPC_FF_PositiveEdge_schematic"
"I11v" "XI11"
"I11n" "Proj_lib_TSPC_FF_PositiveEdge_schematic"
"I10v" "XI10"
"I10n" "Proj_lib_TSPC_FF_PositiveEdge_schematic"
"I9v" "XI9"
"I9n" "Proj_lib_TSPC_FF_PositiveEdge_schematic"
"I8v" "XI8"
"I8n" "Proj_lib_TSPC_FF_PositiveEdge_schematic"
"I7v" "XI7"
"I7n" "Proj_lib_TSPC_FF_PositiveEdge_schematic"
"I6v" "XI6"
"I6n" "Proj_lib_TSPC_FF_PositiveEdge_schematic"
"I5v" "XI5"
"I5n" "Proj_lib_TSPC_FF_PositiveEdge_schematic"
"I4v" "XI4"
"I4n" "Proj_lib_TSPC_FF_PositiveEdge_schematic"
"I3v" "XI3"
"I3n" "Proj_lib_TSPC_FF_PositiveEdge_schematic"
"I2v" "XI2"
"I2n" "Proj_lib_TSPC_FF_PositiveEdge_schematic"
"I0v" "XI0"
"I0n" "Proj_lib_TSPC_FF_PositiveEdge_schematic"
