HEADER
"PSFversion" "1.00"
"net79v" "net79"
"net75v" "net75"
"Q_OUTv" "Q_OUT"
"GDv" "GD"
"net71v" "net71"
"VDv" "VD"
"clkv" "clk"
"net86v" "net86"
"net63v" "net63"
"net67v" "net67"
"D_INv" "D_IN"
