HEADER
"PSFversion" "1.00"
"design" "(\"Proj_lib\" \"TSPC_FF_PositveEdge\" \"schematic\" \"\")"
"simulator" "hspiceS"
"temperature" "25"
"host" ""
"date" "Nov 26 18:04:21 2014"
"title" ""
"analysisList" "()"
END
