HEADER
"PSFversion" "1.00"
"__NEXT_FILE__" "hw1_CMOS_Inverter_180nm_schematic"
