HEADER
"PSFversion" "1.00"
"design" "(\"Proj_lib\" \"Decoder\" \"schematic\" \"\")"
"simulator" "hspiceS"
"temperature" "25"
"host" ""
"date" "Nov 26 21:40:10 2014"
"title" ""
"analysisList" "()"
END
