HEADER
"PSFversion" "1.00"
"XI2v" "I2"
"XI2n" "Proj_lib_Inverter_180nm_schematic"
"MN1v" "N1"
"MN1n" "NCSU_Analog_Parts_nmos4_symbol"
"MN0v" "N0"
"MN0n" "NCSU_Analog_Parts_nmos4_symbol"
"MP1v" "P1"
"MP1n" "NCSU_Analog_Parts_pmos4_symbol"
"MP0v" "P0"
"MP0n" "NCSU_Analog_Parts_pmos4_symbol"
"(FUNCTION (plus (root \"I2/Out\")))v" "OUT_AND21"
"(FUNCTION (plus (root \"N1/G\") (root \"P1/G\")))v" "B_IN"
"(FUNCTION (plus (root \"P0/G\") (root \"N0/G\")))v" "A_IN"
