HEADER
"PSFversion" "1.00"
"S_OUT_HALF_ADDER22v" "1"
"A_INv" "A_IN"
"C_OUT_HALF_ADDER22v" "2"
"B_INv" "B_IN"
