HEADER
"PSFversion" "1.00"
"XI4v" "I4"
"XI4n" "Proj_lib_OR21_StaticCMOS_schematic"
"XI1v" "I1"
"XI1n" "Proj_lib_HALF_ADDER_22_STATIC_CMOS_schematic"
"XI0v" "I0"
"XI0n" "Proj_lib_HALF_ADDER_22_STATIC_CMOS_schematic"
