HEADER
"PSFversion" "1.00"
"I4v" "XI4"
"I4n" "Proj_lib_OR21_StaticCMOS_schematic"
"I1v" "XI1"
"I1n" "Proj_lib_HALF_ADDER_22_STATIC_CMOS_schematic"
"I0v" "XI0"
"I0n" "Proj_lib_HALF_ADDER_22_STATIC_CMOS_schematic"
