HEADER
"PSFversion" "1.00"
"0v" "gnd!"
"vdd!v" "vdd!"
"__NEXT_FILE__" "Proj_lib_FULL_ADDER_32_STATIC_CMOS_schematic"
