HEADER
"PSFversion" "1.00"
"__NEXT_FILE__" "Proj_lib_FULL_ADDER_32_STATIC_CMOS_schematic"
