HEADER
"PSFversion" "1.00"
"design" "(\"Proj_lib\" \"Full_Adder_Mirror_StaticCMOS\" \"schematic\" \"\")"
"simulator" "hspiceS"
"temperature" "25"
"host" ""
"date" "Nov 12 15:03:42 2014"
"title" ""
"analysisList" "()"
END
