HEADER
"PSFversion" "1.00"
"Time Stamp" "Nov 12 15:03:42 2014"
TYPE
"variable" STRUCT(
"value" FLOAT DOUBLE
) PROP( "key" "element" )
VALUE
"TEMPDC" "variable" ( 25 ) PROP( )
END
