HEADER
"PSFversion" "1.00"
"design" "(\"hw1\" \"InverterFan4_180nm\" \"schematic\" \"\")"
"simulator" "hspiceS"
"temperature" "25"
"host" ""
"date" "Oct 30 21:35:49 2014"
"title" ""
"analysisList" "()"
END
