HEADER
"PSFversion" "1.00"
"I4v" "I4"
"I4n" "Inverter_180nm"
"I3v" "I3"
"I3n" "Inverter_180nm"
"I2v" "I2"
"I2n" "Inverter_180nm"
"I1v" "I1"
"I1n" "Inverter_180nm"
"I0v" "I0"
"I0n" "Inverter_180nm"
