HEADER
"PSFversion" "1.00"
"__NEXT_FILE__" "Wallace_MUL_Library_Domino_OR_schematic"
