HEADER
"PSFversion" "1.00"
"0v" "gnd!"
"vdd!v" "vdd!"
"__NEXT_FILE__" "Wallace_MUL_Library_Domino_OR_schematic"
