HEADER
"PSFversion" "1.00"
"net5v" "net5"
"net9v" "net9"
"net13v" "net13"
"net048v" "net048"
"net052v" "net052"
"CLKv" "CLK"
"OUTv" "OUT"
"Av" "A"
"Bv" "B"
