HEADER
"PSFversion" "1.00"
"VDv" "VD"
"Outv" "Out"
"Inv" "In"
"GDv" "GD"
