HEADER
"PSFversion" "1.00"
"Time Stamp" "Oct 31 14:25:27 2014"
TYPE
"variable" STRUCT(
"value" FLOAT DOUBLE
) PROP( "key" "element" )
VALUE
"R" "variable" ( 4.55555555555556 ) PROP( )
"TEMPDC" "variable" ( 25 ) PROP( )
END
