HEADER
"PSFversion" "1.00"
"design" "(\"hw1\" \"Inverter\" \"extracted\" \"\")"
"simulator" "hspiceS"
"temperature" "25"
"host" ""
"date" "Oct 25 01:11:10 2014"
"title" ""
"analysisList" "()"
END
