HEADER
"PSFversion" "1.00"
"net14v" "net14"
"net37v" "net37"
"net22v" "net22"
"net10v" "net10"
"net45v" "net45"
"net26v" "net26"
"net6v" "net6"
"D_INv" "D_IN"
"VDv" "VD"
"GDv" "GD"
"clkv" "clk"
"Q_OUTv" "Q_OUT"
