HEADER
"PSFversion" "1.00"
"__NEXT_FILE__" "Proj_lib_Inverter_180nm_schematic"
