HEADER
"PSFversion" "1.00"
"design" "(\"Proj_lib\" \"Doubled_C2MOS_Latch\" \"schematic\" \"\")"
"simulator" "hspiceS"
"temperature" "25"
"host" ""
"date" "Dec  2 19:13:12 2014"
"title" ""
"analysisList" "()"
END
