HEADER
"PSFversion" "1.00"
"Time Stamp" "Dec  2 19:13:12 2014"
TYPE
"variable" STRUCT(
"value" FLOAT DOUBLE
) PROP( "key" "element" )
VALUE
"TEMPDC" "variable" ( 25 ) PROP( )
END
