HEADER
"PSFversion" "1.00"
"OUTv" "OUT"
"OUT_INVv" "OUT_INV"
"INv" "IN"
