HEADER
"PSFversion" "1.00"
"1v" "C_OUT_HALF_ADDER22"
"B_INv" "B_IN"
"VDv" "VD"
"GDv" "GD"
"2v" "S_OUT_HALF_ADDER22"
"A_INv" "A_IN"
"3v" "7"
"4v" "8"
"5v" "9"
"6v" "10"
"11v" "11"
"12v" "12"
"13v" "13"
