HEADER
"PSFversion" "1.00"
"C_OUT_HALF_ADDER22v" "1"
"B_INv" "B_IN"
"VDv" "VD"
"GDv" "GD"
"S_OUT_HALF_ADDER22v" "2"
"A_INv" "A_IN"
"7v" "3"
"8v" "4"
"9v" "5"
"10v" "6"
"11v" "11"
"12v" "12"
"13v" "13"
