HEADER
"PSFversion" "1.00"
"C14v" "+57"
"C14n" "NCSU_Analog_Parts_pcapacitor_ivpcell"
"C15v" "+56"
"C15n" "NCSU_Analog_Parts_pcapacitor_ivpcell"
"C16v" "+55"
"C16n" "NCSU_Analog_Parts_pcapacitor_ivpcell"
"C17v" "+54"
"C17n" "NCSU_Analog_Parts_pcapacitor_ivpcell"
"C18v" "+53"
"C18n" "NCSU_Analog_Parts_pcapacitor_ivpcell"
"C19v" "+52"
"C19n" "NCSU_Analog_Parts_pcapacitor_ivpcell"
"C20v" "+51"
"C20n" "NCSU_Analog_Parts_pcapacitor_ivpcell"
"C21v" "+50"
"C21n" "NCSU_Analog_Parts_pcapacitor_ivpcell"
"C22v" "+49"
"C22n" "NCSU_Analog_Parts_pcapacitor_ivpcell"
"C23v" "+48"
"C23n" "NCSU_Analog_Parts_pcapacitor_ivpcell"
"C24v" "+47"
"C24n" "NCSU_Analog_Parts_pcapacitor_ivpcell"
"C25v" "+46"
"C25n" "NCSU_Analog_Parts_pcapacitor_ivpcell"
"C26v" "+45"
"C26n" "NCSU_Analog_Parts_pcapacitor_ivpcell"
"C27v" "+44"
"C27n" "NCSU_Analog_Parts_pcapacitor_ivpcell"
"C28v" "+43"
"C28n" "NCSU_Analog_Parts_pcapacitor_ivpcell"
"C29v" "+42"
"C29n" "NCSU_Analog_Parts_pcapacitor_ivpcell"
"C30v" "+41"
"C30n" "NCSU_Analog_Parts_pcapacitor_ivpcell"
"C31v" "+40"
"C31n" "NCSU_Analog_Parts_pcapacitor_ivpcell"
"C32v" "+39"
"C32n" "NCSU_Analog_Parts_pcapacitor_ivpcell"
"C33v" "+38"
"C33n" "NCSU_Analog_Parts_pcapacitor_ivpcell"
"C34v" "+37"
"C34n" "NCSU_Analog_Parts_pcapacitor_ivpcell"
"C35v" "+36"
"C35n" "NCSU_Analog_Parts_pcapacitor_ivpcell"
"C36v" "+35"
"C36n" "NCSU_Analog_Parts_pcapacitor_ivpcell"
"C37v" "+34"
"C37n" "NCSU_Analog_Parts_pcapacitor_ivpcell"
"C38v" "+33"
"C38n" "NCSU_Analog_Parts_pcapacitor_ivpcell"
"C39v" "+32"
"C39n" "NCSU_Analog_Parts_pcapacitor_ivpcell"
"C40v" "+31"
"C40n" "NCSU_Analog_Parts_pcapacitor_ivpcell"
"C41v" "+30"
"C41n" "NCSU_Analog_Parts_pcapacitor_ivpcell"
"C42v" "+29"
"C42n" "NCSU_Analog_Parts_pcapacitor_ivpcell"
"C43v" "+28"
"C43n" "NCSU_Analog_Parts_pcapacitor_ivpcell"
"C44v" "+27"
"C44n" "NCSU_Analog_Parts_pcapacitor_ivpcell"
"C45v" "+26"
"C45n" "NCSU_Analog_Parts_pcapacitor_ivpcell"
"C46v" "+25"
"C46n" "NCSU_Analog_Parts_pcapacitor_ivpcell"
"C47v" "+24"
"C47n" "NCSU_Analog_Parts_pcapacitor_ivpcell"
"C48v" "+23"
"C48n" "NCSU_Analog_Parts_pcapacitor_ivpcell"
"C49v" "+22"
"C49n" "NCSU_Analog_Parts_pcapacitor_ivpcell"
"C50v" "+21"
"C50n" "NCSU_Analog_Parts_pcapacitor_ivpcell"
"C51v" "+20"
"C51n" "NCSU_Analog_Parts_pcapacitor_ivpcell"
"C52v" "+19"
"C52n" "NCSU_Analog_Parts_pcapacitor_ivpcell"
"C53v" "+18"
"C53n" "NCSU_Analog_Parts_pcapacitor_ivpcell"
"M54v" "+17"
"M54n" "NCSU_Analog_Parts_pmos4_ivpcell"
"M55v" "+16"
"M55n" "NCSU_Analog_Parts_pmos4_ivpcell"
"M56v" "+15"
"M56n" "NCSU_Analog_Parts_pmos4_ivpcell"
"M57v" "+14"
"M57n" "NCSU_Analog_Parts_pmos4_ivpcell"
"M58v" "+13"
"M58n" "NCSU_Analog_Parts_pmos4_ivpcell"
"M59v" "+12"
"M59n" "NCSU_Analog_Parts_pmos4_ivpcell"
"M60v" "+11"
"M60n" "NCSU_Analog_Parts_pmos4_ivpcell"
"M61v" "+10"
"M61n" "NCSU_Analog_Parts_pmos4_ivpcell"
"M62v" "+9"
"M62n" "NCSU_Analog_Parts_pmos4_ivpcell"
"M63v" "+8"
"M63n" "NCSU_Analog_Parts_nmos4_ivpcell"
"M64v" "+7"
"M64n" "NCSU_Analog_Parts_nmos4_ivpcell"
"M65v" "+6"
"M65n" "NCSU_Analog_Parts_nmos4_ivpcell"
"M66v" "+5"
"M66n" "NCSU_Analog_Parts_nmos4_ivpcell"
"M67v" "+4"
"M67n" "NCSU_Analog_Parts_nmos4_ivpcell"
"M68v" "+3"
"M68n" "NCSU_Analog_Parts_nmos4_ivpcell"
"M69v" "+2"
"M69n" "NCSU_Analog_Parts_nmos4_ivpcell"
"M70v" "+1"
"M70n" "NCSU_Analog_Parts_nmos4_ivpcell"
"M71v" "+0"
"M71n" "NCSU_Analog_Parts_nmos4_ivpcell"
