HEADER
"PSFversion" "1.00"
"+57v" "C14"
"+57n" "NCSU_Analog_Parts_pcapacitor_ivpcell"
"+56v" "C15"
"+56n" "NCSU_Analog_Parts_pcapacitor_ivpcell"
"+55v" "C16"
"+55n" "NCSU_Analog_Parts_pcapacitor_ivpcell"
"+54v" "C17"
"+54n" "NCSU_Analog_Parts_pcapacitor_ivpcell"
"+53v" "C18"
"+53n" "NCSU_Analog_Parts_pcapacitor_ivpcell"
"+52v" "C19"
"+52n" "NCSU_Analog_Parts_pcapacitor_ivpcell"
"+51v" "C20"
"+51n" "NCSU_Analog_Parts_pcapacitor_ivpcell"
"+50v" "C21"
"+50n" "NCSU_Analog_Parts_pcapacitor_ivpcell"
"+49v" "C22"
"+49n" "NCSU_Analog_Parts_pcapacitor_ivpcell"
"+48v" "C23"
"+48n" "NCSU_Analog_Parts_pcapacitor_ivpcell"
"+47v" "C24"
"+47n" "NCSU_Analog_Parts_pcapacitor_ivpcell"
"+46v" "C25"
"+46n" "NCSU_Analog_Parts_pcapacitor_ivpcell"
"+45v" "C26"
"+45n" "NCSU_Analog_Parts_pcapacitor_ivpcell"
"+44v" "C27"
"+44n" "NCSU_Analog_Parts_pcapacitor_ivpcell"
"+43v" "C28"
"+43n" "NCSU_Analog_Parts_pcapacitor_ivpcell"
"+42v" "C29"
"+42n" "NCSU_Analog_Parts_pcapacitor_ivpcell"
"+41v" "C30"
"+41n" "NCSU_Analog_Parts_pcapacitor_ivpcell"
"+40v" "C31"
"+40n" "NCSU_Analog_Parts_pcapacitor_ivpcell"
"+39v" "C32"
"+39n" "NCSU_Analog_Parts_pcapacitor_ivpcell"
"+38v" "C33"
"+38n" "NCSU_Analog_Parts_pcapacitor_ivpcell"
"+37v" "C34"
"+37n" "NCSU_Analog_Parts_pcapacitor_ivpcell"
"+36v" "C35"
"+36n" "NCSU_Analog_Parts_pcapacitor_ivpcell"
"+35v" "C36"
"+35n" "NCSU_Analog_Parts_pcapacitor_ivpcell"
"+34v" "C37"
"+34n" "NCSU_Analog_Parts_pcapacitor_ivpcell"
"+33v" "C38"
"+33n" "NCSU_Analog_Parts_pcapacitor_ivpcell"
"+32v" "C39"
"+32n" "NCSU_Analog_Parts_pcapacitor_ivpcell"
"+31v" "C40"
"+31n" "NCSU_Analog_Parts_pcapacitor_ivpcell"
"+30v" "C41"
"+30n" "NCSU_Analog_Parts_pcapacitor_ivpcell"
"+29v" "C42"
"+29n" "NCSU_Analog_Parts_pcapacitor_ivpcell"
"+28v" "C43"
"+28n" "NCSU_Analog_Parts_pcapacitor_ivpcell"
"+27v" "C44"
"+27n" "NCSU_Analog_Parts_pcapacitor_ivpcell"
"+26v" "C45"
"+26n" "NCSU_Analog_Parts_pcapacitor_ivpcell"
"+25v" "C46"
"+25n" "NCSU_Analog_Parts_pcapacitor_ivpcell"
"+24v" "C47"
"+24n" "NCSU_Analog_Parts_pcapacitor_ivpcell"
"+23v" "C48"
"+23n" "NCSU_Analog_Parts_pcapacitor_ivpcell"
"+22v" "C49"
"+22n" "NCSU_Analog_Parts_pcapacitor_ivpcell"
"+21v" "C50"
"+21n" "NCSU_Analog_Parts_pcapacitor_ivpcell"
"+20v" "C51"
"+20n" "NCSU_Analog_Parts_pcapacitor_ivpcell"
"+19v" "C52"
"+19n" "NCSU_Analog_Parts_pcapacitor_ivpcell"
"+18v" "C53"
"+18n" "NCSU_Analog_Parts_pcapacitor_ivpcell"
"+17v" "M54"
"+17n" "NCSU_Analog_Parts_pmos4_ivpcell"
"+16v" "M55"
"+16n" "NCSU_Analog_Parts_pmos4_ivpcell"
"+15v" "M56"
"+15n" "NCSU_Analog_Parts_pmos4_ivpcell"
"+14v" "M57"
"+14n" "NCSU_Analog_Parts_pmos4_ivpcell"
"+13v" "M58"
"+13n" "NCSU_Analog_Parts_pmos4_ivpcell"
"+12v" "M59"
"+12n" "NCSU_Analog_Parts_pmos4_ivpcell"
"+11v" "M60"
"+11n" "NCSU_Analog_Parts_pmos4_ivpcell"
"+10v" "M61"
"+10n" "NCSU_Analog_Parts_pmos4_ivpcell"
"+9v" "M62"
"+9n" "NCSU_Analog_Parts_pmos4_ivpcell"
"+8v" "M63"
"+8n" "NCSU_Analog_Parts_nmos4_ivpcell"
"+7v" "M64"
"+7n" "NCSU_Analog_Parts_nmos4_ivpcell"
"+6v" "M65"
"+6n" "NCSU_Analog_Parts_nmos4_ivpcell"
"+5v" "M66"
"+5n" "NCSU_Analog_Parts_nmos4_ivpcell"
"+4v" "M67"
"+4n" "NCSU_Analog_Parts_nmos4_ivpcell"
"+3v" "M68"
"+3n" "NCSU_Analog_Parts_nmos4_ivpcell"
"+2v" "M69"
"+2n" "NCSU_Analog_Parts_nmos4_ivpcell"
"+1v" "M70"
"+1n" "NCSU_Analog_Parts_nmos4_ivpcell"
"+0v" "M71"
"+0n" "NCSU_Analog_Parts_nmos4_ivpcell"
