HEADER
"PSFversion" "1.00"
"__NEXT_FILE__" "Proj_lib_HALF_ADDER_22_STATIC_CMOS_extracted"
