HEADER
"PSFversion" "1.00"
"Time Stamp" "Oct 31 14:25:21 2014"
TYPE
"variable" STRUCT(
"value" FLOAT DOUBLE
) PROP( "key" "element" )
VALUE
"R" "variable" ( 1.88888888888889 ) PROP( )
"TEMPDC" "variable" ( 25 ) PROP( )
END
