HEADER
"PSFversion" "1.00"
"__NEXT_FILE__" "Proj_lib_FF_Positive_edge_schematic"
