HEADER
"PSFversion" "1.00"
"OUTv" "OUT"
"INv" "IN"
"0v" "gnd!"
"vdd!v" "vdd!"
