HEADER
"PSFversion" "1.00"
"OUTv" "OUT"
"INv" "IN"
"gnd!v" "0"
"vdd!v" "vdd!"
