HEADER
"PSFversion" "1.00"
"P0v" "P0"
"P0n" "NCSU_Analog_Parts_pmos4_spectre"
"N1v" "N1"
"N1n" "NCSU_Analog_Parts_nmos4_spectre"
