HEADER
"PSFversion" "1.00"
"Time Stamp" "Oct 31 14:25:25 2014"
TYPE
"variable" STRUCT(
"value" FLOAT DOUBLE
) PROP( "key" "element" )
VALUE
"R" "variable" ( 3.66666666666667 ) PROP( )
"TEMPDC" "variable" ( 25 ) PROP( )
END
