HEADER
"PSFversion" "1.00"
"design" "(\"hw1\" \"Inverter\" \"schematic\" \"\")"
"simulator" "spectre"
"temperature" "27"
"host" ""
"date" "Oct 29 19:06:23 2014"
"title" ""
"analysisList" "()"
END
