HEADER
"PSFversion" "1.00"
"MP0v" "P0"
"MP0n" "NCSU_Analog_Parts_pmos4_symbol"
"MN0v" "N0"
"MN0n" "NCSU_Analog_Parts_nmos4_symbol"
"(FUNCTION (plus (root \"N0/D\") (root \"P0/D\")))v" "INV_OUT"
"(FUNCTION (plus (root \"N0/S\") (root \"N0/B\")))v" "GD"
"(FUNCTION (plus (root \"N0/G\") (root \"P0/G\")))v" "A_IN"
"(FUNCTION (plus (root \"P0/S\") (root \"P0/B\")))v" "VD"
