HEADER
"PSFversion" "1.00"
"A_INv" "A_IN"
"B_INv" "B_IN"
"VDv" "VD"
"GDv" "GD"
"OUT_OR21v" "OUT_OR21"
"net13v" "net13"
