HEADER
"PSFversion" "1.00"
"OUT_AND21v" "OUT_AND21"
"net6v" "net6"
"A_INv" "A_IN"
"GDv" "GD"
"VDv" "VD"
"B_INv" "B_IN"
"net18v" "net18"
