HEADER
"PSFversion" "1.00"
"VDv" "VD"
"A_INv" "A_IN"
"INV_OUTv" "INV_OUT"
"GDv" "GD"
