HEADER
"PSFversion" "1.00"
"D_INv" "D_IN"
"VDv" "VD"
"net11v" "net11"
"net17v" "net17"
"GDv" "GD"
"Q_OUTv" "Q_OUT"
"net040v" "net040"
"CLKv" "CLK"
"net14v" "net14"
"Q_BAR_OUTv" "Q_BAR_OUT"
