HEADER
"PSFversion" "1.00"
"P0v" "MP0"
"P0n" "NCSU_Analog_Parts_pmos4_symbol"
"N0v" "MN0"
"N0n" "NCSU_Analog_Parts_nmos4_symbol"
"INV_OUTv" "(FUNCTION (plus (root \"N0/D\") (root \"P0/D\")))"
"GDv" "(FUNCTION (plus (root \"N0/S\") (root \"N0/B\")))"
"A_INv" "(FUNCTION (plus (root \"N0/G\") (root \"P0/G\")))"
"VDv" "(FUNCTION (plus (root \"P0/S\") (root \"P0/B\")))"
