HEADER
"PSFversion" "1.00"
"__NEXT_FILE__" "Proj_lib_DFF_STATIC_CMOS_schematic"
