HEADER
"PSFversion" "1.00"
"design" "(\"Proj_lib\" \"DFF_STATIC_CMOS\" \"schematic\" \"\")"
"simulator" "hspiceS"
"temperature" "25"
"host" ""
"date" "Nov 26 20:57:53 2014"
"title" ""
"analysisList" "()"
END
