HEADER
"PSFversion" "1.00"
"net74v" "net74"
"net82v" "net82"
"net112v" "net112"
"net090v" "net090"
"net86v" "net86"
"net84v" "net84"
"net105v" "net105"
"D_INv" "D_IN"
"Q_BAR_OUT_DFF_MS_CVSLv" "1"
"Q_OUT_DFF_MS_CVSLv" "2"
"CLKv" "CLK"
