HEADER
"PSFversion" "1.00"
"__NEXT_FILE__" "Proj_lib_DFF_MASTERSLAVE_CVSL_STATIC_CMOS_schematic"
