HEADER
"PSFversion" "1.00"
"gnd!v" "0"
"vdd!v" "vdd!"
"__NEXT_FILE__" "Proj_lib_DFF_MASTERSLAVE_CVSL_STATIC_CMOS_schematic"
