HEADER
"PSFversion" "1.00"
"C12v" "+33"
"C12n" "NCSU_Analog_Parts_pcapacitor_ivpcell"
"C13v" "+32"
"C13n" "NCSU_Analog_Parts_pcapacitor_ivpcell"
"C14v" "+31"
"C14n" "NCSU_Analog_Parts_pcapacitor_ivpcell"
"C15v" "+30"
"C15n" "NCSU_Analog_Parts_pcapacitor_ivpcell"
"C16v" "+29"
"C16n" "NCSU_Analog_Parts_pcapacitor_ivpcell"
"C17v" "+28"
"C17n" "NCSU_Analog_Parts_pcapacitor_ivpcell"
"C18v" "+27"
"C18n" "NCSU_Analog_Parts_pcapacitor_ivpcell"
"C19v" "+26"
"C19n" "NCSU_Analog_Parts_pcapacitor_ivpcell"
"C20v" "+25"
"C20n" "NCSU_Analog_Parts_pcapacitor_ivpcell"
"C21v" "+24"
"C21n" "NCSU_Analog_Parts_pcapacitor_ivpcell"
"C22v" "+23"
"C22n" "NCSU_Analog_Parts_pcapacitor_ivpcell"
"C23v" "+22"
"C23n" "NCSU_Analog_Parts_pcapacitor_ivpcell"
"C24v" "+21"
"C24n" "NCSU_Analog_Parts_pcapacitor_ivpcell"
"C25v" "+20"
"C25n" "NCSU_Analog_Parts_pcapacitor_ivpcell"
"C26v" "+19"
"C26n" "NCSU_Analog_Parts_pcapacitor_ivpcell"
"C27v" "+18"
"C27n" "NCSU_Analog_Parts_pcapacitor_ivpcell"
"C28v" "+17"
"C28n" "NCSU_Analog_Parts_pcapacitor_ivpcell"
"C29v" "+16"
"C29n" "NCSU_Analog_Parts_pcapacitor_ivpcell"
"C30v" "+15"
"C30n" "NCSU_Analog_Parts_pcapacitor_ivpcell"
"C31v" "+14"
"C31n" "NCSU_Analog_Parts_pcapacitor_ivpcell"
"C32v" "+13"
"C32n" "NCSU_Analog_Parts_pcapacitor_ivpcell"
"C33v" "+12"
"C33n" "NCSU_Analog_Parts_pcapacitor_ivpcell"
"C34v" "+11"
"C34n" "NCSU_Analog_Parts_pcapacitor_ivpcell"
"M35v" "+10"
"M35n" "NCSU_Analog_Parts_pmos4_ivpcell"
"M36v" "+9"
"M36n" "NCSU_Analog_Parts_pmos4_ivpcell"
"M37v" "+8"
"M37n" "NCSU_Analog_Parts_pmos4_ivpcell"
"M38v" "+7"
"M38n" "NCSU_Analog_Parts_pmos4_ivpcell"
"M39v" "+6"
"M39n" "NCSU_Analog_Parts_pmos4_ivpcell"
"M40v" "+5"
"M40n" "NCSU_Analog_Parts_nmos4_ivpcell"
"M41v" "+4"
"M41n" "NCSU_Analog_Parts_nmos4_ivpcell"
"M42v" "+3"
"M42n" "NCSU_Analog_Parts_nmos4_ivpcell"
"M43v" "+2"
"M43n" "NCSU_Analog_Parts_nmos4_ivpcell"
"M44v" "+1"
"M44n" "NCSU_Analog_Parts_nmos4_ivpcell"
"M45v" "+0"
"M45n" "NCSU_Analog_Parts_nmos4_ivpcell"
