HEADER
"PSFversion" "1.00"
"+33v" "C12"
"+33n" "NCSU_Analog_Parts_pcapacitor_ivpcell"
"+32v" "C13"
"+32n" "NCSU_Analog_Parts_pcapacitor_ivpcell"
"+31v" "C14"
"+31n" "NCSU_Analog_Parts_pcapacitor_ivpcell"
"+30v" "C15"
"+30n" "NCSU_Analog_Parts_pcapacitor_ivpcell"
"+29v" "C16"
"+29n" "NCSU_Analog_Parts_pcapacitor_ivpcell"
"+28v" "C17"
"+28n" "NCSU_Analog_Parts_pcapacitor_ivpcell"
"+27v" "C18"
"+27n" "NCSU_Analog_Parts_pcapacitor_ivpcell"
"+26v" "C19"
"+26n" "NCSU_Analog_Parts_pcapacitor_ivpcell"
"+25v" "C20"
"+25n" "NCSU_Analog_Parts_pcapacitor_ivpcell"
"+24v" "C21"
"+24n" "NCSU_Analog_Parts_pcapacitor_ivpcell"
"+23v" "C22"
"+23n" "NCSU_Analog_Parts_pcapacitor_ivpcell"
"+22v" "C23"
"+22n" "NCSU_Analog_Parts_pcapacitor_ivpcell"
"+21v" "C24"
"+21n" "NCSU_Analog_Parts_pcapacitor_ivpcell"
"+20v" "C25"
"+20n" "NCSU_Analog_Parts_pcapacitor_ivpcell"
"+19v" "C26"
"+19n" "NCSU_Analog_Parts_pcapacitor_ivpcell"
"+18v" "C27"
"+18n" "NCSU_Analog_Parts_pcapacitor_ivpcell"
"+17v" "C28"
"+17n" "NCSU_Analog_Parts_pcapacitor_ivpcell"
"+16v" "C29"
"+16n" "NCSU_Analog_Parts_pcapacitor_ivpcell"
"+15v" "C30"
"+15n" "NCSU_Analog_Parts_pcapacitor_ivpcell"
"+14v" "C31"
"+14n" "NCSU_Analog_Parts_pcapacitor_ivpcell"
"+13v" "C32"
"+13n" "NCSU_Analog_Parts_pcapacitor_ivpcell"
"+12v" "C33"
"+12n" "NCSU_Analog_Parts_pcapacitor_ivpcell"
"+11v" "C34"
"+11n" "NCSU_Analog_Parts_pcapacitor_ivpcell"
"+10v" "M35"
"+10n" "NCSU_Analog_Parts_pmos4_ivpcell"
"+9v" "M36"
"+9n" "NCSU_Analog_Parts_pmos4_ivpcell"
"+8v" "M37"
"+8n" "NCSU_Analog_Parts_pmos4_ivpcell"
"+7v" "M38"
"+7n" "NCSU_Analog_Parts_pmos4_ivpcell"
"+6v" "M39"
"+6n" "NCSU_Analog_Parts_pmos4_ivpcell"
"+5v" "M40"
"+5n" "NCSU_Analog_Parts_nmos4_ivpcell"
"+4v" "M41"
"+4n" "NCSU_Analog_Parts_nmos4_ivpcell"
"+3v" "M42"
"+3n" "NCSU_Analog_Parts_nmos4_ivpcell"
"+2v" "M43"
"+2n" "NCSU_Analog_Parts_nmos4_ivpcell"
"+1v" "M44"
"+1n" "NCSU_Analog_Parts_nmos4_ivpcell"
"+0v" "M45"
"+0n" "NCSU_Analog_Parts_nmos4_ivpcell"
