HEADER
"PSFversion" "1.00"
"Av" "A"
"Bv" "B"
"OUTv" "OUT"
"6v" "1"
