HEADER
"PSFversion" "1.00"
"__NEXT_FILE__" "hw1_CMOS_NAND_180nm_extracted"
