HEADER
"PSFversion" "1.00"
"design" "(\"Proj_lib\" \"HALF_ADDER_22_STATIC_CMOS\" \"schematic\" \"\")"
"simulator" "hspiceS"
"temperature" "25"
"host" ""
"date" "Nov 26 16:11:53 2014"
"title" ""
"analysisList" "()"
END
