HEADER
"PSFversion" "1.00"
"net12v" "net12"
"OUTv" "OUT"
"Bv" "B"
"Av" "A"
