HEADER
"PSFversion" "1.00"
"+1v" "M0"
"+1n" "NCSU_Analog_Parts_pmos4_ivpcell"
"+0v" "M1"
"+0n" "NCSU_Analog_Parts_nmos4_ivpcell"
