HEADER
"PSFversion" "1.00"
"M0v" "+1"
"M0n" "NCSU_Analog_Parts_pmos4_ivpcell"
"M1v" "+0"
"M1n" "NCSU_Analog_Parts_nmos4_ivpcell"
