HEADER
"PSFversion" "1.00"
"A_4v" "A_4"
"VDv" "VD"
"B_iv" "B_i"
"A_2v" "A_2"
"A_5v" "A_5"
"PP_1v" "PP_1"
"PP_0v" "PP_0"
"A_7v" "A_7"
"A_1v" "A_1"
"A_0v" "A_0"
"GDv" "GD"
"PP_7v" "PP_7"
"PP_3v" "PP_3"
"A_3v" "A_3"
"PP_4v" "PP_4"
"PP_6v" "PP_6"
"PP_2v" "PP_2"
"A_6v" "A_6"
"PP_5v" "PP_5"
