HEADER
"PSFversion" "1.00"
"P14v" "P14"
"C10v" "C10"
"C9v" "C9"
"VDv" "VD"
"GDv" "GD"
"C_INv" "C_IN"
"P8v" "P8"
"net54v" "net54"
"net59v" "net59"
"net79v" "net79"
"net44v" "net44"
"net74v" "net74"
"S_14v" "S_14"
"S_11v" "S_11"
"net49v" "net49"
"S_9v" "S_9"
"S_15v" "S_15"
"P7v" "P7"
"P5v" "P5"
"C11v" "C11"
"C5v" "C5"
"S_10v" "S_10"
"C6v" "C6"
"S_7v" "S_7"
"ERRORv" "ERROR"
"C8v" "C8"
"net35v" "net35"
"C14v" "C14"
"net64v" "net64"
"S_13v" "S_13"
"C13v" "C13"
"S_12v" "S_12"
"net84v" "net84"
"S_6v" "S_6"
"P13v" "P13"
"S_5v" "S_5"
"P11v" "P11"
"P12v" "P12"
"C12v" "C12"
"net69v" "net69"
"P9v" "P9"
"S_8v" "S_8"
"C7v" "C7"
"P6v" "P6"
"P10v" "P10"
