HEADER
"PSFversion" "1.00"
"SUM_OUTv" "SUM_OUT"
"A_INv" "A_IN"
"C_INv" "C_IN"
"GDv" "GD"
"B_INv" "B_IN"
"net99v" "net99"
"net111v" "net111"
"net179v" "net179"
"net195v" "net195"
"net174v" "net174"
"net135v" "net135"
"net186v" "net186"
"net119v" "net119"
"net106v" "net106"
"VDv" "VD"
"net187v" "net187"
"net191v" "net191"
"net139v" "net139"
"CARRY_OUTv" "CARRY_OUT"
