HEADER
"PSFversion" "1.00"
"net352v" "net352"
"net348v" "net348"
"net320v" "net320"
"oli_20v" "oli_20"
"oli_21v" "oli_21"
"olo_14v" "olo_14"
"oli_23v" "oli_23"
"oli_19v" "oli_19"
"olo_5v" "olo_5"
"olo_4v" "olo_4"
"oli_12v" "oli_12"
"olo_0v" "olo_0"
"oli_5v" "oli_5"
"oli_4v" "oli_4"
"olo_2v" "olo_2"
"oli_9v" "oli_9"
"oli_0v" "oli_0"
"oli_15v" "oli_15"
"oli_2v" "oli_2"
"olo_24v" "olo_24"
"olo_16v" "olo_16"
"olo_25v" "olo_25"
"oli_18v" "oli_18"
"olo_13v" "olo_13"
"olo_7v" "olo_7"
"olo_10v" "olo_10"
"olo_20v" "olo_20"
"olo_22v" "olo_22"
"oli_17v" "oli_17"
"oli_7v" "oli_7"
"oli_11v" "oli_11"
"oli_8v" "oli_8"
"olo_19v" "olo_19"
"olo_6v" "olo_6"
"olo_12v" "olo_12"
"oli_14v" "oli_14"
"olo_9v" "olo_9"
"oli_24v" "oli_24"
"oli_22v" "oli_22"
"olo_15v" "olo_15"
"oli_25v" "oli_25"
"oli_6v" "oli_6"
"olo_3v" "olo_3"
"oli_3v" "oli_3"
"olo_21v" "olo_21"
"olo_1v" "olo_1"
"oli_1v" "oli_1"
"olo_23v" "olo_23"
"olo_18v" "olo_18"
"oli_16v" "oli_16"
"clkv" "clk"
"oli_13v" "oli_13"
"oli_10v" "oli_10"
"olo_17v" "olo_17"
"olo_11v" "olo_11"
"olo_8v" "olo_8"
"clk_out_1v" "clk_out_1"
"clk_out_6v" "clk_out_6"
"clk_out_5v" "clk_out_5"
"clk_out_4v" "clk_out_4"
"clk_out_2v" "clk_out_2"
"clk_out_3v" "clk_out_3"
"VDv" "VD"
"GDv" "GD"
