HEADER
"PSFversion" "1.00"
"XI373v" "I373"
"XI373n" "Proj_lib_Inverter_180nm_schematic"
"XI372v" "I372"
"XI372n" "Proj_lib_Inverter_180nm_schematic"
"XI374v" "I374"
"XI374n" "Proj_lib_Inverter_180nm_schematic"
"XI375v" "I375"
"XI375n" "Proj_lib_Inverter_180nm_schematic"
"XI376v" "I376"
"XI376n" "Proj_lib_Inverter_180nm_schematic"
"XI377v" "I377"
"XI377n" "Proj_lib_Inverter_180nm_schematic"
"XI378v" "I378"
"XI378n" "Proj_lib_Inverter_180nm_schematic"
"XI355v" "I355"
"XI355n" "Proj_lib_Inverter_180nm_schematic"
"XI354v" "I354"
"XI354n" "Proj_lib_Inverter_180nm_schematic"
"XI365v" "I365"
"XI365n" "Proj_lib_Inverter_180nm_schematic"
"XI356v" "I356"
"XI356n" "Proj_lib_Inverter_180nm_schematic"
"XI364v" "I364"
"XI364n" "Proj_lib_Inverter_180nm_schematic"
"XI359v" "I359"
"XI359n" "Proj_lib_Inverter_180nm_schematic"
"XI17v" "I17"
"XI17n" "Proj_lib_Inverter_180nm_schematic"
"XI358v" "I358"
"XI358n" "Proj_lib_Inverter_180nm_schematic"
"XI360v" "I360"
"XI360n" "Proj_lib_Inverter_180nm_schematic"
"XI370v" "I370"
"XI370n" "Proj_lib_Inverter_180nm_schematic"
"XI366v" "I366"
"XI366n" "Proj_lib_Inverter_180nm_schematic"
"XI361v" "I361"
"XI361n" "Proj_lib_Inverter_180nm_schematic"
"XI357v" "I357"
"XI357n" "Proj_lib_Inverter_180nm_schematic"
"XI353v" "I353"
"XI353n" "Proj_lib_Inverter_180nm_schematic"
"XI363v" "I363"
"XI363n" "Proj_lib_Inverter_180nm_schematic"
"XI368v" "I368"
"XI368n" "Proj_lib_Inverter_180nm_schematic"
"XI403v" "I403"
"XI403n" "Proj_lib_TSPC_FF_PositiveEdge_schematic"
"XI404v" "I404"
"XI404n" "Proj_lib_TSPC_FF_PositiveEdge_schematic"
"XI405v" "I405"
"XI405n" "Proj_lib_TSPC_FF_PositiveEdge_schematic"
"XI16v" "I16"
"XI16n" "Proj_lib_TSPC_FF_PositiveEdge_schematic"
"XI15v" "I15"
"XI15n" "Proj_lib_TSPC_FF_PositiveEdge_schematic"
"XI14v" "I14"
"XI14n" "Proj_lib_TSPC_FF_PositiveEdge_schematic"
"XI13v" "I13"
"XI13n" "Proj_lib_TSPC_FF_PositiveEdge_schematic"
"XI12v" "I12"
"XI12n" "Proj_lib_TSPC_FF_PositiveEdge_schematic"
"XI11v" "I11"
"XI11n" "Proj_lib_TSPC_FF_PositiveEdge_schematic"
"XI10v" "I10"
"XI10n" "Proj_lib_TSPC_FF_PositiveEdge_schematic"
"XI9v" "I9"
"XI9n" "Proj_lib_TSPC_FF_PositiveEdge_schematic"
"XI8v" "I8"
"XI8n" "Proj_lib_TSPC_FF_PositiveEdge_schematic"
"XI7v" "I7"
"XI7n" "Proj_lib_TSPC_FF_PositiveEdge_schematic"
"XI6v" "I6"
"XI6n" "Proj_lib_TSPC_FF_PositiveEdge_schematic"
"XI5v" "I5"
"XI5n" "Proj_lib_TSPC_FF_PositiveEdge_schematic"
"XI4v" "I4"
"XI4n" "Proj_lib_TSPC_FF_PositiveEdge_schematic"
"XI3v" "I3"
"XI3n" "Proj_lib_TSPC_FF_PositiveEdge_schematic"
"XI2v" "I2"
"XI2n" "Proj_lib_TSPC_FF_PositiveEdge_schematic"
"XI0v" "I0"
"XI0n" "Proj_lib_TSPC_FF_PositiveEdge_schematic"
"XI406v" "I406"
"XI406n" "Proj_lib_TSPC_FF_PositiveEdge_schematic"
"XI25v" "I25"
"XI25n" "Proj_lib_TSPC_FF_PositiveEdge_schematic"
"XI21v" "I21"
"XI21n" "Proj_lib_TSPC_FF_PositiveEdge_schematic"
"XI22v" "I22"
"XI22n" "Proj_lib_TSPC_FF_PositiveEdge_schematic"
"XI23v" "I23"
"XI23n" "Proj_lib_TSPC_FF_PositiveEdge_schematic"
"XI24v" "I24"
"XI24n" "Proj_lib_TSPC_FF_PositiveEdge_schematic"
"XI20v" "I20"
"XI20n" "Proj_lib_TSPC_FF_PositiveEdge_schematic"
"XI19v" "I19"
"XI19n" "Proj_lib_TSPC_FF_PositiveEdge_schematic"
"XI18v" "I18"
"XI18n" "Proj_lib_TSPC_FF_PositiveEdge_schematic"
"XI379v" "I379"
"XI379n" "Proj_lib_TSPC_FF_PositiveEdge_schematic"
"XI1v" "I1"
"XI1n" "Proj_lib_TSPC_FF_PositiveEdge_schematic"
"XI380v" "I380"
"XI380n" "Proj_lib_TSPC_FF_PositiveEdge_schematic"
"XI381v" "I381"
"XI381n" "Proj_lib_TSPC_FF_PositiveEdge_schematic"
"XI382v" "I382"
"XI382n" "Proj_lib_TSPC_FF_PositiveEdge_schematic"
"XI383v" "I383"
"XI383n" "Proj_lib_TSPC_FF_PositiveEdge_schematic"
"XI384v" "I384"
"XI384n" "Proj_lib_TSPC_FF_PositiveEdge_schematic"
"XI385v" "I385"
"XI385n" "Proj_lib_TSPC_FF_PositiveEdge_schematic"
"XI386v" "I386"
"XI386n" "Proj_lib_TSPC_FF_PositiveEdge_schematic"
"XI387v" "I387"
"XI387n" "Proj_lib_TSPC_FF_PositiveEdge_schematic"
"XI388v" "I388"
"XI388n" "Proj_lib_TSPC_FF_PositiveEdge_schematic"
"XI389v" "I389"
"XI389n" "Proj_lib_TSPC_FF_PositiveEdge_schematic"
"XI390v" "I390"
"XI390n" "Proj_lib_TSPC_FF_PositiveEdge_schematic"
"XI391v" "I391"
"XI391n" "Proj_lib_TSPC_FF_PositiveEdge_schematic"
"XI392v" "I392"
"XI392n" "Proj_lib_TSPC_FF_PositiveEdge_schematic"
"XI393v" "I393"
"XI393n" "Proj_lib_TSPC_FF_PositiveEdge_schematic"
"XI394v" "I394"
"XI394n" "Proj_lib_TSPC_FF_PositiveEdge_schematic"
"XI395v" "I395"
"XI395n" "Proj_lib_TSPC_FF_PositiveEdge_schematic"
"XI407v" "I407"
"XI407n" "Proj_lib_TSPC_FF_PositiveEdge_schematic"
"XI408v" "I408"
"XI408n" "Proj_lib_TSPC_FF_PositiveEdge_schematic"
"XI409v" "I409"
"XI409n" "Proj_lib_TSPC_FF_PositiveEdge_schematic"
"XI412v" "I412"
"XI412n" "Proj_lib_TSPC_FF_PositiveEdge_schematic"
"XI410v" "I410"
"XI410n" "Proj_lib_TSPC_FF_PositiveEdge_schematic"
"XI411v" "I411"
"XI411n" "Proj_lib_TSPC_FF_PositiveEdge_schematic"
"XI396v" "I396"
"XI396n" "Proj_lib_TSPC_FF_PositiveEdge_schematic"
"XI398v" "I398"
"XI398n" "Proj_lib_TSPC_FF_PositiveEdge_schematic"
"XI400v" "I400"
"XI400n" "Proj_lib_TSPC_FF_PositiveEdge_schematic"
"XI401v" "I401"
"XI401n" "Proj_lib_TSPC_FF_PositiveEdge_schematic"
"XI397v" "I397"
"XI397n" "Proj_lib_TSPC_FF_PositiveEdge_schematic"
"XI399v" "I399"
"XI399n" "Proj_lib_TSPC_FF_PositiveEdge_schematic"
"XI402v" "I402"
"XI402n" "Proj_lib_TSPC_FF_PositiveEdge_schematic"
"XI272v" "I272"
"XI272n" "Proj_lib_HALF_ADDER_22_STATIC_CMOS_schematic"
"XI273v" "I273"
"XI273n" "Proj_lib_HALF_ADDER_22_STATIC_CMOS_schematic"
"XI274v" "I274"
"XI274n" "Proj_lib_HALF_ADDER_22_STATIC_CMOS_schematic"
"XI275v" "I275"
"XI275n" "Proj_lib_HALF_ADDER_22_STATIC_CMOS_schematic"
"XI276v" "I276"
"XI276n" "Proj_lib_HALF_ADDER_22_STATIC_CMOS_schematic"
"XI277v" "I277"
"XI277n" "Proj_lib_HALF_ADDER_22_STATIC_CMOS_schematic"
"XI278v" "I278"
"XI278n" "Proj_lib_HALF_ADDER_22_STATIC_CMOS_schematic"
"XI279v" "I279"
"XI279n" "Proj_lib_HALF_ADDER_22_STATIC_CMOS_schematic"
"XI280v" "I280"
"XI280n" "Proj_lib_HALF_ADDER_22_STATIC_CMOS_schematic"
"XI281v" "I281"
"XI281n" "Proj_lib_HALF_ADDER_22_STATIC_CMOS_schematic"
"XI282v" "I282"
"XI282n" "Proj_lib_HALF_ADDER_22_STATIC_CMOS_schematic"
"XI283v" "I283"
"XI283n" "Proj_lib_HALF_ADDER_22_STATIC_CMOS_schematic"
"XI284v" "I284"
"XI284n" "Proj_lib_HALF_ADDER_22_STATIC_CMOS_schematic"
"XI285v" "I285"
"XI285n" "Proj_lib_HALF_ADDER_22_STATIC_CMOS_schematic"
"XI286v" "I286"
"XI286n" "Proj_lib_HALF_ADDER_22_STATIC_CMOS_schematic"
"XI234v" "I234"
"XI234n" "Proj_lib_Full_Adder_Mirror_StaticCMOS_schematic"
"XI235v" "I235"
"XI235n" "Proj_lib_Full_Adder_Mirror_StaticCMOS_schematic"
"XI236v" "I236"
"XI236n" "Proj_lib_Full_Adder_Mirror_StaticCMOS_schematic"
"XI237v" "I237"
"XI237n" "Proj_lib_Full_Adder_Mirror_StaticCMOS_schematic"
"XI238v" "I238"
"XI238n" "Proj_lib_Full_Adder_Mirror_StaticCMOS_schematic"
"XI239v" "I239"
"XI239n" "Proj_lib_Full_Adder_Mirror_StaticCMOS_schematic"
"XI240v" "I240"
"XI240n" "Proj_lib_Full_Adder_Mirror_StaticCMOS_schematic"
"XI241v" "I241"
"XI241n" "Proj_lib_Full_Adder_Mirror_StaticCMOS_schematic"
"XI242v" "I242"
"XI242n" "Proj_lib_Full_Adder_Mirror_StaticCMOS_schematic"
"XI243v" "I243"
"XI243n" "Proj_lib_Full_Adder_Mirror_StaticCMOS_schematic"
"XI244v" "I244"
"XI244n" "Proj_lib_Full_Adder_Mirror_StaticCMOS_schematic"
"XI245v" "I245"
"XI245n" "Proj_lib_Full_Adder_Mirror_StaticCMOS_schematic"
"XI246v" "I246"
"XI246n" "Proj_lib_Full_Adder_Mirror_StaticCMOS_schematic"
"XI247v" "I247"
"XI247n" "Proj_lib_Full_Adder_Mirror_StaticCMOS_schematic"
"XI248v" "I248"
"XI248n" "Proj_lib_Full_Adder_Mirror_StaticCMOS_schematic"
"XI249v" "I249"
"XI249n" "Proj_lib_Full_Adder_Mirror_StaticCMOS_schematic"
"XI250v" "I250"
"XI250n" "Proj_lib_Full_Adder_Mirror_StaticCMOS_schematic"
"XI251v" "I251"
"XI251n" "Proj_lib_Full_Adder_Mirror_StaticCMOS_schematic"
"XI252v" "I252"
"XI252n" "Proj_lib_Full_Adder_Mirror_StaticCMOS_schematic"
"XI253v" "I253"
"XI253n" "Proj_lib_Full_Adder_Mirror_StaticCMOS_schematic"
"XI254v" "I254"
"XI254n" "Proj_lib_Full_Adder_Mirror_StaticCMOS_schematic"
"XI255v" "I255"
"XI255n" "Proj_lib_Full_Adder_Mirror_StaticCMOS_schematic"
"XI256v" "I256"
"XI256n" "Proj_lib_Full_Adder_Mirror_StaticCMOS_schematic"
"XI257v" "I257"
"XI257n" "Proj_lib_Full_Adder_Mirror_StaticCMOS_schematic"
"XI258v" "I258"
"XI258n" "Proj_lib_Full_Adder_Mirror_StaticCMOS_schematic"
"XI259v" "I259"
"XI259n" "Proj_lib_Full_Adder_Mirror_StaticCMOS_schematic"
"XI260v" "I260"
"XI260n" "Proj_lib_Full_Adder_Mirror_StaticCMOS_schematic"
"XI261v" "I261"
"XI261n" "Proj_lib_Full_Adder_Mirror_StaticCMOS_schematic"
"XI262v" "I262"
"XI262n" "Proj_lib_Full_Adder_Mirror_StaticCMOS_schematic"
"XI263v" "I263"
"XI263n" "Proj_lib_Full_Adder_Mirror_StaticCMOS_schematic"
"XI264v" "I264"
"XI264n" "Proj_lib_Full_Adder_Mirror_StaticCMOS_schematic"
"XI265v" "I265"
"XI265n" "Proj_lib_Full_Adder_Mirror_StaticCMOS_schematic"
"XI266v" "I266"
"XI266n" "Proj_lib_Full_Adder_Mirror_StaticCMOS_schematic"
"XI267v" "I267"
"XI267n" "Proj_lib_Full_Adder_Mirror_StaticCMOS_schematic"
"XI268v" "I268"
"XI268n" "Proj_lib_Full_Adder_Mirror_StaticCMOS_schematic"
"XI269v" "I269"
"XI269n" "Proj_lib_Full_Adder_Mirror_StaticCMOS_schematic"
"XI270v" "I270"
"XI270n" "Proj_lib_Full_Adder_Mirror_StaticCMOS_schematic"
"XI271v" "I271"
"XI271n" "Proj_lib_Full_Adder_Mirror_StaticCMOS_schematic"
"XI294v" "I294"
"XI294n" "Proj_lib_AND21_StaticCMOS_schematic"
"XI295v" "I295"
"XI295n" "Proj_lib_AND21_StaticCMOS_schematic"
"XI296v" "I296"
"XI296n" "Proj_lib_AND21_StaticCMOS_schematic"
"XI293v" "I293"
"XI293n" "Proj_lib_AND21_StaticCMOS_schematic"
"XI297v" "I297"
"XI297n" "Proj_lib_AND21_StaticCMOS_schematic"
"XI298v" "I298"
"XI298n" "Proj_lib_AND21_StaticCMOS_schematic"
"XI299v" "I299"
"XI299n" "Proj_lib_AND21_StaticCMOS_schematic"
"XI300v" "I300"
"XI300n" "Proj_lib_AND21_StaticCMOS_schematic"
"XI301v" "I301"
"XI301n" "Proj_lib_AND21_StaticCMOS_schematic"
"XI302v" "I302"
"XI302n" "Proj_lib_AND21_StaticCMOS_schematic"
"XI303v" "I303"
"XI303n" "Proj_lib_AND21_StaticCMOS_schematic"
"XI304v" "I304"
"XI304n" "Proj_lib_AND21_StaticCMOS_schematic"
"XI305v" "I305"
"XI305n" "Proj_lib_AND21_StaticCMOS_schematic"
"XI306v" "I306"
"XI306n" "Proj_lib_AND21_StaticCMOS_schematic"
"XI307v" "I307"
"XI307n" "Proj_lib_AND21_StaticCMOS_schematic"
"XI308v" "I308"
"XI308n" "Proj_lib_AND21_StaticCMOS_schematic"
"XI309v" "I309"
"XI309n" "Proj_lib_AND21_StaticCMOS_schematic"
"XI310v" "I310"
"XI310n" "Proj_lib_AND21_StaticCMOS_schematic"
"XI311v" "I311"
"XI311n" "Proj_lib_AND21_StaticCMOS_schematic"
"XI312v" "I312"
"XI312n" "Proj_lib_AND21_StaticCMOS_schematic"
"XI313v" "I313"
"XI313n" "Proj_lib_AND21_StaticCMOS_schematic"
"XI314v" "I314"
"XI314n" "Proj_lib_AND21_StaticCMOS_schematic"
"XI315v" "I315"
"XI315n" "Proj_lib_AND21_StaticCMOS_schematic"
"XI316v" "I316"
"XI316n" "Proj_lib_AND21_StaticCMOS_schematic"
"XI317v" "I317"
"XI317n" "Proj_lib_AND21_StaticCMOS_schematic"
"XI318v" "I318"
"XI318n" "Proj_lib_AND21_StaticCMOS_schematic"
"XI319v" "I319"
"XI319n" "Proj_lib_AND21_StaticCMOS_schematic"
"XI320v" "I320"
"XI320n" "Proj_lib_AND21_StaticCMOS_schematic"
"XI321v" "I321"
"XI321n" "Proj_lib_AND21_StaticCMOS_schematic"
"XI322v" "I322"
"XI322n" "Proj_lib_AND21_StaticCMOS_schematic"
"XI323v" "I323"
"XI323n" "Proj_lib_AND21_StaticCMOS_schematic"
"XI324v" "I324"
"XI324n" "Proj_lib_AND21_StaticCMOS_schematic"
"XI325v" "I325"
"XI325n" "Proj_lib_AND21_StaticCMOS_schematic"
"XI326v" "I326"
"XI326n" "Proj_lib_AND21_StaticCMOS_schematic"
"XI327v" "I327"
"XI327n" "Proj_lib_AND21_StaticCMOS_schematic"
"XI328v" "I328"
"XI328n" "Proj_lib_AND21_StaticCMOS_schematic"
"XI329v" "I329"
"XI329n" "Proj_lib_AND21_StaticCMOS_schematic"
"XI330v" "I330"
"XI330n" "Proj_lib_AND21_StaticCMOS_schematic"
"XI331v" "I331"
"XI331n" "Proj_lib_AND21_StaticCMOS_schematic"
"XI332v" "I332"
"XI332n" "Proj_lib_AND21_StaticCMOS_schematic"
"XI333v" "I333"
"XI333n" "Proj_lib_AND21_StaticCMOS_schematic"
"XI334v" "I334"
"XI334n" "Proj_lib_AND21_StaticCMOS_schematic"
"XI335v" "I335"
"XI335n" "Proj_lib_AND21_StaticCMOS_schematic"
"XI336v" "I336"
"XI336n" "Proj_lib_AND21_StaticCMOS_schematic"
"XI337v" "I337"
"XI337n" "Proj_lib_AND21_StaticCMOS_schematic"
"XI338v" "I338"
"XI338n" "Proj_lib_AND21_StaticCMOS_schematic"
"XI339v" "I339"
"XI339n" "Proj_lib_AND21_StaticCMOS_schematic"
"XI340v" "I340"
"XI340n" "Proj_lib_AND21_StaticCMOS_schematic"
"XI341v" "I341"
"XI341n" "Proj_lib_AND21_StaticCMOS_schematic"
"XI342v" "I342"
"XI342n" "Proj_lib_AND21_StaticCMOS_schematic"
"XI343v" "I343"
"XI343n" "Proj_lib_AND21_StaticCMOS_schematic"
"XI344v" "I344"
"XI344n" "Proj_lib_AND21_StaticCMOS_schematic"
"XI345v" "I345"
"XI345n" "Proj_lib_AND21_StaticCMOS_schematic"
"XI346v" "I346"
"XI346n" "Proj_lib_AND21_StaticCMOS_schematic"
"XI347v" "I347"
"XI347n" "Proj_lib_AND21_StaticCMOS_schematic"
"XI348v" "I348"
"XI348n" "Proj_lib_AND21_StaticCMOS_schematic"
"XI349v" "I349"
"XI349n" "Proj_lib_AND21_StaticCMOS_schematic"
"XI350v" "I350"
"XI350n" "Proj_lib_AND21_StaticCMOS_schematic"
"XI351v" "I351"
"XI351n" "Proj_lib_AND21_StaticCMOS_schematic"
"XI352v" "I352"
"XI352n" "Proj_lib_AND21_StaticCMOS_schematic"
"XI290v" "I290"
"XI290n" "Proj_lib_AND21_StaticCMOS_schematic"
"XI291v" "I291"
"XI291n" "Proj_lib_AND21_StaticCMOS_schematic"
"XI292v" "I292"
"XI292n" "Proj_lib_AND21_StaticCMOS_schematic"
"XI289v" "I289"
"XI289n" "Proj_lib_AND21_StaticCMOS_schematic"
"XI123v" "I123"
"XI123n" "Proj_lib_AND21_StaticCMOS_schematic"
"XI122v" "I122"
"XI122n" "Proj_lib_Decoder_schematic"
"XI89v" "I89"
"XI89n" "Proj_lib_RIPPLE_CARRY_ADDER_schematic"
