HEADER
"PSFversion" "1.00"
"net52v" "net52"
"net46v" "net46"
"A_INv" "A_IN"
"VDv" "VD"
"net25v" "net25"
"net34v" "net34"
"1v" "S_OUT_HALF_ADDER22"
"net45v" "net45"
"net77v" "net77"
"2v" "C_OUT_HALF_ADDER22"
"net26v" "net26"
"GDv" "GD"
"B_INv" "B_IN"
