HEADER
"PSFversion" "1.00"
"VDv" "VD"
"net045v" "net045"
"A_INv" "A_IN"
"GDv" "GD"
"OUT_OR21v" "OUT_OR21"
"net15v" "net15"
"B_INv" "B_IN"
