HEADER
"PSFversion" "1.00"
"I373v" "XI373"
"I373n" "Proj_lib_Inverter_180nm_schematic"
"I372v" "XI372"
"I372n" "Proj_lib_Inverter_180nm_schematic"
"I374v" "XI374"
"I374n" "Proj_lib_Inverter_180nm_schematic"
"I375v" "XI375"
"I375n" "Proj_lib_Inverter_180nm_schematic"
"I376v" "XI376"
"I376n" "Proj_lib_Inverter_180nm_schematic"
"I377v" "XI377"
"I377n" "Proj_lib_Inverter_180nm_schematic"
"I378v" "XI378"
"I378n" "Proj_lib_Inverter_180nm_schematic"
"I355v" "XI355"
"I355n" "Proj_lib_Inverter_180nm_schematic"
"I354v" "XI354"
"I354n" "Proj_lib_Inverter_180nm_schematic"
"I365v" "XI365"
"I365n" "Proj_lib_Inverter_180nm_schematic"
"I356v" "XI356"
"I356n" "Proj_lib_Inverter_180nm_schematic"
"I364v" "XI364"
"I364n" "Proj_lib_Inverter_180nm_schematic"
"I359v" "XI359"
"I359n" "Proj_lib_Inverter_180nm_schematic"
"I17v" "XI17"
"I17n" "Proj_lib_Inverter_180nm_schematic"
"I358v" "XI358"
"I358n" "Proj_lib_Inverter_180nm_schematic"
"I360v" "XI360"
"I360n" "Proj_lib_Inverter_180nm_schematic"
"I370v" "XI370"
"I370n" "Proj_lib_Inverter_180nm_schematic"
"I366v" "XI366"
"I366n" "Proj_lib_Inverter_180nm_schematic"
"I361v" "XI361"
"I361n" "Proj_lib_Inverter_180nm_schematic"
"I357v" "XI357"
"I357n" "Proj_lib_Inverter_180nm_schematic"
"I353v" "XI353"
"I353n" "Proj_lib_Inverter_180nm_schematic"
"I363v" "XI363"
"I363n" "Proj_lib_Inverter_180nm_schematic"
"I368v" "XI368"
"I368n" "Proj_lib_Inverter_180nm_schematic"
"I403v" "XI403"
"I403n" "Proj_lib_TSPC_FF_PositiveEdge_schematic"
"I404v" "XI404"
"I404n" "Proj_lib_TSPC_FF_PositiveEdge_schematic"
"I405v" "XI405"
"I405n" "Proj_lib_TSPC_FF_PositiveEdge_schematic"
"I16v" "XI16"
"I16n" "Proj_lib_TSPC_FF_PositiveEdge_schematic"
"I15v" "XI15"
"I15n" "Proj_lib_TSPC_FF_PositiveEdge_schematic"
"I14v" "XI14"
"I14n" "Proj_lib_TSPC_FF_PositiveEdge_schematic"
"I13v" "XI13"
"I13n" "Proj_lib_TSPC_FF_PositiveEdge_schematic"
"I12v" "XI12"
"I12n" "Proj_lib_TSPC_FF_PositiveEdge_schematic"
"I11v" "XI11"
"I11n" "Proj_lib_TSPC_FF_PositiveEdge_schematic"
"I10v" "XI10"
"I10n" "Proj_lib_TSPC_FF_PositiveEdge_schematic"
"I9v" "XI9"
"I9n" "Proj_lib_TSPC_FF_PositiveEdge_schematic"
"I8v" "XI8"
"I8n" "Proj_lib_TSPC_FF_PositiveEdge_schematic"
"I7v" "XI7"
"I7n" "Proj_lib_TSPC_FF_PositiveEdge_schematic"
"I6v" "XI6"
"I6n" "Proj_lib_TSPC_FF_PositiveEdge_schematic"
"I5v" "XI5"
"I5n" "Proj_lib_TSPC_FF_PositiveEdge_schematic"
"I4v" "XI4"
"I4n" "Proj_lib_TSPC_FF_PositiveEdge_schematic"
"I3v" "XI3"
"I3n" "Proj_lib_TSPC_FF_PositiveEdge_schematic"
"I2v" "XI2"
"I2n" "Proj_lib_TSPC_FF_PositiveEdge_schematic"
"I0v" "XI0"
"I0n" "Proj_lib_TSPC_FF_PositiveEdge_schematic"
"I406v" "XI406"
"I406n" "Proj_lib_TSPC_FF_PositiveEdge_schematic"
"I25v" "XI25"
"I25n" "Proj_lib_TSPC_FF_PositiveEdge_schematic"
"I21v" "XI21"
"I21n" "Proj_lib_TSPC_FF_PositiveEdge_schematic"
"I22v" "XI22"
"I22n" "Proj_lib_TSPC_FF_PositiveEdge_schematic"
"I23v" "XI23"
"I23n" "Proj_lib_TSPC_FF_PositiveEdge_schematic"
"I24v" "XI24"
"I24n" "Proj_lib_TSPC_FF_PositiveEdge_schematic"
"I20v" "XI20"
"I20n" "Proj_lib_TSPC_FF_PositiveEdge_schematic"
"I19v" "XI19"
"I19n" "Proj_lib_TSPC_FF_PositiveEdge_schematic"
"I18v" "XI18"
"I18n" "Proj_lib_TSPC_FF_PositiveEdge_schematic"
"I379v" "XI379"
"I379n" "Proj_lib_TSPC_FF_PositiveEdge_schematic"
"I1v" "XI1"
"I1n" "Proj_lib_TSPC_FF_PositiveEdge_schematic"
"I380v" "XI380"
"I380n" "Proj_lib_TSPC_FF_PositiveEdge_schematic"
"I381v" "XI381"
"I381n" "Proj_lib_TSPC_FF_PositiveEdge_schematic"
"I382v" "XI382"
"I382n" "Proj_lib_TSPC_FF_PositiveEdge_schematic"
"I383v" "XI383"
"I383n" "Proj_lib_TSPC_FF_PositiveEdge_schematic"
"I384v" "XI384"
"I384n" "Proj_lib_TSPC_FF_PositiveEdge_schematic"
"I385v" "XI385"
"I385n" "Proj_lib_TSPC_FF_PositiveEdge_schematic"
"I386v" "XI386"
"I386n" "Proj_lib_TSPC_FF_PositiveEdge_schematic"
"I387v" "XI387"
"I387n" "Proj_lib_TSPC_FF_PositiveEdge_schematic"
"I388v" "XI388"
"I388n" "Proj_lib_TSPC_FF_PositiveEdge_schematic"
"I389v" "XI389"
"I389n" "Proj_lib_TSPC_FF_PositiveEdge_schematic"
"I390v" "XI390"
"I390n" "Proj_lib_TSPC_FF_PositiveEdge_schematic"
"I391v" "XI391"
"I391n" "Proj_lib_TSPC_FF_PositiveEdge_schematic"
"I392v" "XI392"
"I392n" "Proj_lib_TSPC_FF_PositiveEdge_schematic"
"I393v" "XI393"
"I393n" "Proj_lib_TSPC_FF_PositiveEdge_schematic"
"I394v" "XI394"
"I394n" "Proj_lib_TSPC_FF_PositiveEdge_schematic"
"I395v" "XI395"
"I395n" "Proj_lib_TSPC_FF_PositiveEdge_schematic"
"I407v" "XI407"
"I407n" "Proj_lib_TSPC_FF_PositiveEdge_schematic"
"I408v" "XI408"
"I408n" "Proj_lib_TSPC_FF_PositiveEdge_schematic"
"I409v" "XI409"
"I409n" "Proj_lib_TSPC_FF_PositiveEdge_schematic"
"I412v" "XI412"
"I412n" "Proj_lib_TSPC_FF_PositiveEdge_schematic"
"I410v" "XI410"
"I410n" "Proj_lib_TSPC_FF_PositiveEdge_schematic"
"I411v" "XI411"
"I411n" "Proj_lib_TSPC_FF_PositiveEdge_schematic"
"I396v" "XI396"
"I396n" "Proj_lib_TSPC_FF_PositiveEdge_schematic"
"I398v" "XI398"
"I398n" "Proj_lib_TSPC_FF_PositiveEdge_schematic"
"I400v" "XI400"
"I400n" "Proj_lib_TSPC_FF_PositiveEdge_schematic"
"I401v" "XI401"
"I401n" "Proj_lib_TSPC_FF_PositiveEdge_schematic"
"I397v" "XI397"
"I397n" "Proj_lib_TSPC_FF_PositiveEdge_schematic"
"I399v" "XI399"
"I399n" "Proj_lib_TSPC_FF_PositiveEdge_schematic"
"I402v" "XI402"
"I402n" "Proj_lib_TSPC_FF_PositiveEdge_schematic"
"I272v" "XI272"
"I272n" "Proj_lib_HALF_ADDER_22_STATIC_CMOS_schematic"
"I273v" "XI273"
"I273n" "Proj_lib_HALF_ADDER_22_STATIC_CMOS_schematic"
"I274v" "XI274"
"I274n" "Proj_lib_HALF_ADDER_22_STATIC_CMOS_schematic"
"I275v" "XI275"
"I275n" "Proj_lib_HALF_ADDER_22_STATIC_CMOS_schematic"
"I276v" "XI276"
"I276n" "Proj_lib_HALF_ADDER_22_STATIC_CMOS_schematic"
"I277v" "XI277"
"I277n" "Proj_lib_HALF_ADDER_22_STATIC_CMOS_schematic"
"I278v" "XI278"
"I278n" "Proj_lib_HALF_ADDER_22_STATIC_CMOS_schematic"
"I279v" "XI279"
"I279n" "Proj_lib_HALF_ADDER_22_STATIC_CMOS_schematic"
"I280v" "XI280"
"I280n" "Proj_lib_HALF_ADDER_22_STATIC_CMOS_schematic"
"I281v" "XI281"
"I281n" "Proj_lib_HALF_ADDER_22_STATIC_CMOS_schematic"
"I282v" "XI282"
"I282n" "Proj_lib_HALF_ADDER_22_STATIC_CMOS_schematic"
"I283v" "XI283"
"I283n" "Proj_lib_HALF_ADDER_22_STATIC_CMOS_schematic"
"I284v" "XI284"
"I284n" "Proj_lib_HALF_ADDER_22_STATIC_CMOS_schematic"
"I285v" "XI285"
"I285n" "Proj_lib_HALF_ADDER_22_STATIC_CMOS_schematic"
"I286v" "XI286"
"I286n" "Proj_lib_HALF_ADDER_22_STATIC_CMOS_schematic"
"I234v" "XI234"
"I234n" "Proj_lib_Full_Adder_Mirror_StaticCMOS_schematic"
"I235v" "XI235"
"I235n" "Proj_lib_Full_Adder_Mirror_StaticCMOS_schematic"
"I236v" "XI236"
"I236n" "Proj_lib_Full_Adder_Mirror_StaticCMOS_schematic"
"I237v" "XI237"
"I237n" "Proj_lib_Full_Adder_Mirror_StaticCMOS_schematic"
"I238v" "XI238"
"I238n" "Proj_lib_Full_Adder_Mirror_StaticCMOS_schematic"
"I239v" "XI239"
"I239n" "Proj_lib_Full_Adder_Mirror_StaticCMOS_schematic"
"I240v" "XI240"
"I240n" "Proj_lib_Full_Adder_Mirror_StaticCMOS_schematic"
"I241v" "XI241"
"I241n" "Proj_lib_Full_Adder_Mirror_StaticCMOS_schematic"
"I242v" "XI242"
"I242n" "Proj_lib_Full_Adder_Mirror_StaticCMOS_schematic"
"I243v" "XI243"
"I243n" "Proj_lib_Full_Adder_Mirror_StaticCMOS_schematic"
"I244v" "XI244"
"I244n" "Proj_lib_Full_Adder_Mirror_StaticCMOS_schematic"
"I245v" "XI245"
"I245n" "Proj_lib_Full_Adder_Mirror_StaticCMOS_schematic"
"I246v" "XI246"
"I246n" "Proj_lib_Full_Adder_Mirror_StaticCMOS_schematic"
"I247v" "XI247"
"I247n" "Proj_lib_Full_Adder_Mirror_StaticCMOS_schematic"
"I248v" "XI248"
"I248n" "Proj_lib_Full_Adder_Mirror_StaticCMOS_schematic"
"I249v" "XI249"
"I249n" "Proj_lib_Full_Adder_Mirror_StaticCMOS_schematic"
"I250v" "XI250"
"I250n" "Proj_lib_Full_Adder_Mirror_StaticCMOS_schematic"
"I251v" "XI251"
"I251n" "Proj_lib_Full_Adder_Mirror_StaticCMOS_schematic"
"I252v" "XI252"
"I252n" "Proj_lib_Full_Adder_Mirror_StaticCMOS_schematic"
"I253v" "XI253"
"I253n" "Proj_lib_Full_Adder_Mirror_StaticCMOS_schematic"
"I254v" "XI254"
"I254n" "Proj_lib_Full_Adder_Mirror_StaticCMOS_schematic"
"I255v" "XI255"
"I255n" "Proj_lib_Full_Adder_Mirror_StaticCMOS_schematic"
"I256v" "XI256"
"I256n" "Proj_lib_Full_Adder_Mirror_StaticCMOS_schematic"
"I257v" "XI257"
"I257n" "Proj_lib_Full_Adder_Mirror_StaticCMOS_schematic"
"I258v" "XI258"
"I258n" "Proj_lib_Full_Adder_Mirror_StaticCMOS_schematic"
"I259v" "XI259"
"I259n" "Proj_lib_Full_Adder_Mirror_StaticCMOS_schematic"
"I260v" "XI260"
"I260n" "Proj_lib_Full_Adder_Mirror_StaticCMOS_schematic"
"I261v" "XI261"
"I261n" "Proj_lib_Full_Adder_Mirror_StaticCMOS_schematic"
"I262v" "XI262"
"I262n" "Proj_lib_Full_Adder_Mirror_StaticCMOS_schematic"
"I263v" "XI263"
"I263n" "Proj_lib_Full_Adder_Mirror_StaticCMOS_schematic"
"I264v" "XI264"
"I264n" "Proj_lib_Full_Adder_Mirror_StaticCMOS_schematic"
"I265v" "XI265"
"I265n" "Proj_lib_Full_Adder_Mirror_StaticCMOS_schematic"
"I266v" "XI266"
"I266n" "Proj_lib_Full_Adder_Mirror_StaticCMOS_schematic"
"I267v" "XI267"
"I267n" "Proj_lib_Full_Adder_Mirror_StaticCMOS_schematic"
"I268v" "XI268"
"I268n" "Proj_lib_Full_Adder_Mirror_StaticCMOS_schematic"
"I269v" "XI269"
"I269n" "Proj_lib_Full_Adder_Mirror_StaticCMOS_schematic"
"I270v" "XI270"
"I270n" "Proj_lib_Full_Adder_Mirror_StaticCMOS_schematic"
"I271v" "XI271"
"I271n" "Proj_lib_Full_Adder_Mirror_StaticCMOS_schematic"
"I294v" "XI294"
"I294n" "Proj_lib_AND21_StaticCMOS_schematic"
"I295v" "XI295"
"I295n" "Proj_lib_AND21_StaticCMOS_schematic"
"I296v" "XI296"
"I296n" "Proj_lib_AND21_StaticCMOS_schematic"
"I293v" "XI293"
"I293n" "Proj_lib_AND21_StaticCMOS_schematic"
"I297v" "XI297"
"I297n" "Proj_lib_AND21_StaticCMOS_schematic"
"I298v" "XI298"
"I298n" "Proj_lib_AND21_StaticCMOS_schematic"
"I299v" "XI299"
"I299n" "Proj_lib_AND21_StaticCMOS_schematic"
"I300v" "XI300"
"I300n" "Proj_lib_AND21_StaticCMOS_schematic"
"I301v" "XI301"
"I301n" "Proj_lib_AND21_StaticCMOS_schematic"
"I302v" "XI302"
"I302n" "Proj_lib_AND21_StaticCMOS_schematic"
"I303v" "XI303"
"I303n" "Proj_lib_AND21_StaticCMOS_schematic"
"I304v" "XI304"
"I304n" "Proj_lib_AND21_StaticCMOS_schematic"
"I305v" "XI305"
"I305n" "Proj_lib_AND21_StaticCMOS_schematic"
"I306v" "XI306"
"I306n" "Proj_lib_AND21_StaticCMOS_schematic"
"I307v" "XI307"
"I307n" "Proj_lib_AND21_StaticCMOS_schematic"
"I308v" "XI308"
"I308n" "Proj_lib_AND21_StaticCMOS_schematic"
"I309v" "XI309"
"I309n" "Proj_lib_AND21_StaticCMOS_schematic"
"I310v" "XI310"
"I310n" "Proj_lib_AND21_StaticCMOS_schematic"
"I311v" "XI311"
"I311n" "Proj_lib_AND21_StaticCMOS_schematic"
"I312v" "XI312"
"I312n" "Proj_lib_AND21_StaticCMOS_schematic"
"I313v" "XI313"
"I313n" "Proj_lib_AND21_StaticCMOS_schematic"
"I314v" "XI314"
"I314n" "Proj_lib_AND21_StaticCMOS_schematic"
"I315v" "XI315"
"I315n" "Proj_lib_AND21_StaticCMOS_schematic"
"I316v" "XI316"
"I316n" "Proj_lib_AND21_StaticCMOS_schematic"
"I317v" "XI317"
"I317n" "Proj_lib_AND21_StaticCMOS_schematic"
"I318v" "XI318"
"I318n" "Proj_lib_AND21_StaticCMOS_schematic"
"I319v" "XI319"
"I319n" "Proj_lib_AND21_StaticCMOS_schematic"
"I320v" "XI320"
"I320n" "Proj_lib_AND21_StaticCMOS_schematic"
"I321v" "XI321"
"I321n" "Proj_lib_AND21_StaticCMOS_schematic"
"I322v" "XI322"
"I322n" "Proj_lib_AND21_StaticCMOS_schematic"
"I323v" "XI323"
"I323n" "Proj_lib_AND21_StaticCMOS_schematic"
"I324v" "XI324"
"I324n" "Proj_lib_AND21_StaticCMOS_schematic"
"I325v" "XI325"
"I325n" "Proj_lib_AND21_StaticCMOS_schematic"
"I326v" "XI326"
"I326n" "Proj_lib_AND21_StaticCMOS_schematic"
"I327v" "XI327"
"I327n" "Proj_lib_AND21_StaticCMOS_schematic"
"I328v" "XI328"
"I328n" "Proj_lib_AND21_StaticCMOS_schematic"
"I329v" "XI329"
"I329n" "Proj_lib_AND21_StaticCMOS_schematic"
"I330v" "XI330"
"I330n" "Proj_lib_AND21_StaticCMOS_schematic"
"I331v" "XI331"
"I331n" "Proj_lib_AND21_StaticCMOS_schematic"
"I332v" "XI332"
"I332n" "Proj_lib_AND21_StaticCMOS_schematic"
"I333v" "XI333"
"I333n" "Proj_lib_AND21_StaticCMOS_schematic"
"I334v" "XI334"
"I334n" "Proj_lib_AND21_StaticCMOS_schematic"
"I335v" "XI335"
"I335n" "Proj_lib_AND21_StaticCMOS_schematic"
"I336v" "XI336"
"I336n" "Proj_lib_AND21_StaticCMOS_schematic"
"I337v" "XI337"
"I337n" "Proj_lib_AND21_StaticCMOS_schematic"
"I338v" "XI338"
"I338n" "Proj_lib_AND21_StaticCMOS_schematic"
"I339v" "XI339"
"I339n" "Proj_lib_AND21_StaticCMOS_schematic"
"I340v" "XI340"
"I340n" "Proj_lib_AND21_StaticCMOS_schematic"
"I341v" "XI341"
"I341n" "Proj_lib_AND21_StaticCMOS_schematic"
"I342v" "XI342"
"I342n" "Proj_lib_AND21_StaticCMOS_schematic"
"I343v" "XI343"
"I343n" "Proj_lib_AND21_StaticCMOS_schematic"
"I344v" "XI344"
"I344n" "Proj_lib_AND21_StaticCMOS_schematic"
"I345v" "XI345"
"I345n" "Proj_lib_AND21_StaticCMOS_schematic"
"I346v" "XI346"
"I346n" "Proj_lib_AND21_StaticCMOS_schematic"
"I347v" "XI347"
"I347n" "Proj_lib_AND21_StaticCMOS_schematic"
"I348v" "XI348"
"I348n" "Proj_lib_AND21_StaticCMOS_schematic"
"I349v" "XI349"
"I349n" "Proj_lib_AND21_StaticCMOS_schematic"
"I350v" "XI350"
"I350n" "Proj_lib_AND21_StaticCMOS_schematic"
"I351v" "XI351"
"I351n" "Proj_lib_AND21_StaticCMOS_schematic"
"I352v" "XI352"
"I352n" "Proj_lib_AND21_StaticCMOS_schematic"
"I290v" "XI290"
"I290n" "Proj_lib_AND21_StaticCMOS_schematic"
"I291v" "XI291"
"I291n" "Proj_lib_AND21_StaticCMOS_schematic"
"I292v" "XI292"
"I292n" "Proj_lib_AND21_StaticCMOS_schematic"
"I289v" "XI289"
"I289n" "Proj_lib_AND21_StaticCMOS_schematic"
"I123v" "XI123"
"I123n" "Proj_lib_AND21_StaticCMOS_schematic"
"I122v" "XI122"
"I122n" "Proj_lib_Decoder_schematic"
"I89v" "XI89"
"I89n" "Proj_lib_RIPPLE_CARRY_ADDER_schematic"
