HEADER
"PSFversion" "1.00"
"net172v" "net172"
"clkv" "clk"
"oA_5v" "oA_5"
"oB_3v" "oB_3"
"oA_0v" "oA_0"
"oA_7v" "oA_7"
"oB_5v" "oB_5"
"oA_2v" "oA_2"
"oB_0v" "oB_0"
"oA_4v" "oA_4"
"oB_7v" "oB_7"
"oB_2v" "oB_2"
"oA_6v" "oA_6"
"oB_4v" "oB_4"
"oA_1v" "oA_1"
"oA_3v" "oA_3"
"oB_6v" "oB_6"
"oB_1v" "oB_1"
"B_1v" "B_1"
"B_2v" "B_2"
"B_3v" "B_3"
"B_4v" "B_4"
"B_6v" "B_6"
"B_5v" "B_5"
"B_7v" "B_7"
"B_0v" "B_0"
"A_5v" "A_5"
"A_4v" "A_4"
"A_0v" "A_0"
"A_2v" "A_2"
"A_3v" "A_3"
"A_6v" "A_6"
"A_1v" "A_1"
"A_7v" "A_7"
"GDv" "GD"
"VDv" "VD"
"clk_in_4v" "clk_in_4"
"clk_in_3v" "clk_in_3"
"clk_in_2v" "clk_in_2"
"clk_in_1v" "clk_in_1"
