HEADER
"PSFversion" "1.00"
"GDv" "GD"
"net17v" "net17"
"net044v" "net044"
"Q_OUTv" "Q_OUT"
"net040v" "net040"
"VDv" "VD"
"D_INv" "D_IN"
"CLKv" "CLK"
"net11v" "net11"
"net030v" "net030"
