HEADER
"PSFversion" "1.00"
"A4_B0v" "A4_B0"
"CC_3__1v" "CC_3_<1>"
"oli_11v" "oli_11"
"net1920v" "net1920"
"A4_B2v" "A4_B2"
"net1702v" "net1702"
"oli_3v" "oli_3"
"A3_B2v" "A3_B2"
"A6_B2v" "A6_B2"
"A6_B5v" "A6_B5"
"oli_0v" "oli_0"
"A1_B5v" "A1_B5"
"oli_15v" "oli_15"
"GDv" "GD"
"net1660v" "net1660"
"A7_B6v" "A7_B6"
"A0_B4v" "A0_B4"
"net1745v" "net1745"
"net1962v" "net1962"
"A4_B4v" "A4_B4"
"PP_8__1v" "PP_8_<1>"
"CC_10__1v" "CC_10_<1>"
"A3_B5v" "A3_B5"
"net1407v" "net1407"
"A_0v" "A_0"
"A3_B6v" "A3_B6"
"A1_B3v" "A1_B3"
"A_3v" "A_3"
"A1_B1v" "A1_B1"
"net1442v" "net1442"
"net1271v" "net1271"
"net1267v" "net1267"
"A2_B2v" "A2_B2"
"CC_5__1v" "CC_5_<1>"
"A5_B2v" "A5_B2"
"net1851v" "net1851"
"oli_8v" "oli_8"
"olo_22v" "olo_22"
"M_2_5_6_clkv" "M_2_5_6_clk"
"oli_16v" "oli_16"
"B0_B3_clkv" "B0_B3_clk"
"olo_8v" "olo_8"
"net1780v" "net1780"
"net1382v" "net1382"
"C3__1v" "C3_<1>"
"net1998v" "net1998"
"S12_S9_clkv" "S12_S9_clk"
"net1432v" "net1432"
"CC_7__2v" "CC_7_<2>"
"net1427v" "net1427"
"PP_6__1v" "PP_6_<1>"
"net1914v" "net1914"
"net1956v" "net1956"
"net1701v" "net1701"
"P6__2v" "P6_<2>"
"CC_4__1v" "CC_4_<1>"
"net1892v" "net1892"
"M20_M17_clkv" "M20_M17_clk"
"CC_8__2v" "CC_8_<2>"
"S_14v" "S_14"
"oli_4v" "oli_4"
"A2_B5v" "A2_B5"
"olo_14v" "olo_14"
"S_8v" "S_8"
"A7_B4v" "A7_B4"
"net1259v" "net1259"
"PPP_13__1v" "PPP_13_<1>"
"C6__2v" "C6_<2>"
"M_0_1_3_4_clkv" "M_0_1_3_4_clk"
"olo_21v" "olo_21"
"S_10v" "S_10"
"P4__1v" "P4_<1>"
"PP_11__1v" "PP_11_<1>"
"clkv" "clk"
"A7_B5v" "A7_B5"
"PPP_9__1v" "PPP_9_<1>"
"net1955v" "net1955"
"A5_B6v" "A5_B6"
"net1900v" "net1900"
"net1275v" "net1275"
"S_7v" "S_7"
"PPP_5__1v" "PPP_5_<1>"
"oli_5v" "oli_5"
"A0_A3_clkv" "A0_A3_clk"
"A6_B3v" "A6_B3"
"S_3v" "S_3"
"olo_13v" "olo_13"
"A1_B4v" "A1_B4"
"A_7v" "A_7"
"net1659v" "net1659"
"oli_7v" "oli_7"
"net1991v" "net1991"
"A4_B3v" "A4_B3"
"olo_2v" "olo_2"
"A0_B0v" "A0_B0"
"net1983v" "net1983"
"olo_9v" "olo_9"
"PPP_4__1v" "PPP_4_<1>"
"S_15_olv" "S_15_ol"
"A2_B0v" "A2_B0"
"A1_B7v" "A1_B7"
"A3_B4v" "A3_B4"
"C4__1v" "C4_<1>"
"A6_B6v" "A6_B6"
"B_0v" "B_0"
"C4__2v" "C4_<2>"
"olo_11v" "olo_11"
"PP_3__1v" "PP_3_<1>"
"A_1v" "A_1"
"oli_13v" "oli_13"
"olo_18v" "olo_18"
"net2332v" "net2332"
"A2_B7v" "A2_B7"
"S_7_olv" "S_7_ol"
"net1927v" "net1927"
"olo_0v" "olo_0"
"B_2v" "B_2"
"A5_B7v" "A5_B7"
"net1417v" "net1417"
"net1347v" "net1347"
"PP_4__1v" "PP_4_<1>"
"net1397v" "net1397"
"olo_16v" "olo_16"
"A0_B1v" "A0_B1"
"net1921v" "net1921"
"A4_B5v" "A4_B5"
"S_5_olv" "S_5_ol"
"C5__1v" "C5_<1>"
"net1387v" "net1387"
"C8__2v" "C8_<2>"
"net1262v" "net1262"
"A6_B4v" "A6_B4"
"net1990v" "net1990"
"S_11v" "S_11"
"CCC_6__1v" "CCC_6_<1>"
"net1843v" "net1843"
"A7_B3v" "A7_B3"
"net1286v" "net1286"
"CCC_11__1v" "CCC_11_<1>"
"B_3v" "B_3"
"A7_A4_clkv" "A7_A4_clk"
"A0_B6v" "A0_B6"
"A_5v" "A_5"
"CCC_3__1v" "CCC_3_<1>"
"PPP_11__1v" "PPP_11_<1>"
"A3_B1v" "A3_B1"
"A3_B3v" "A3_B3"
"CCC_12__2v" "CCC_12_<2>"
"S_0v" "S_0"
"CC_8__1v" "CC_8_<1>"
"A7_B2v" "A7_B2"
"S_6_olv" "S_6_ol"
"A2_B1v" "A2_B1"
"olo_10v" "olo_10"
"olo_6v" "olo_6"
"S_14_olv" "S_14_ol"
"net1732v" "net1732"
"net1746v" "net1746"
"S_9_olv" "S_9_ol"
"net1907v" "net1907"
"clk_env" "clk_en"
"net1893v" "net1893"
"net1969v" "net1969"
"net1816v" "net1816"
"A5_B1v" "A5_B1"
"S_8_olv" "S_8_ol"
"A3_B0v" "A3_B0"
"B_4v" "B_4"
"A6_B1v" "A6_B1"
"CC_2__1v" "CC_2_<1>"
"CC_7__1v" "CC_7_<1>"
"A5_B4v" "A5_B4"
"CCC_4__1v" "CCC_4_<1>"
"S_11_olv" "S_11_ol"
"net1942v" "net1942"
"M_7_9_11_12_clkv" "M_7_9_11_12_clk"
"C1v" "C1"
"A7_B1v" "A7_B1"
"PP_7__1v" "PP_7_<1>"
"S_12_olv" "S_12_ol"
"VDv" "VD"
"A2_B4v" "A2_B4"
"C11__1v" "C11_<1>"
"olo_12v" "olo_12"
"A0_B7v" "A0_B7"
"A_2v" "A_2"
"S_5v" "S_5"
"S_16_olv" "S_16_ol"
"A1_B6v" "A1_B6"
"B_1v" "B_1"
"A1_B2v" "A1_B2"
"net1422v" "net1422"
"A7_B7v" "A7_B7"
"P4__2v" "P4_<2>"
"PP_5__1v" "PP_5_<1>"
"oli_2v" "oli_2"
"A6_B0v" "A6_B0"
"oli_24v" "oli_24"
"A3_B7v" "A3_B7"
"olo_20v" "olo_20"
"net1377v" "net1377"
"S_4v" "S_4"
"net1977v" "net1977"
"net1372v" "net1372"
"net1412v" "net1412"
"oli_14v" "oli_14"
"A5_B0v" "A5_B0"
"S16_S13_clkv" "S16_S13_clk"
"olo_4v" "olo_4"
"oli_17v" "oli_17"
"A_6v" "A_6"
"P5__2v" "P5_<2>"
"P2v" "P2"
"A_4v" "A_4"
"PP_9__1v" "PP_9_<1>"
"A2_B3v" "A2_B3"
"net1437v" "net1437"
"S_13v" "S_13"
"M8_clkv" "M8_clk"
"B_7v" "B_7"
"net1836v" "net1836"
"A7_B0v" "A7_B0"
"S_12v" "S_12"
"oli_6v" "oli_6"
"olo_17v" "olo_17"
"net1970v" "net1970"
"S4_S0_clkv" "S4_S0_clk"
"A4_B7v" "A4_B7"
"net1335v" "net1335"
"A6_B7v" "A6_B7"
"A4_B6v" "A4_B6"
"CCC_13__1v" "CCC_13_<1>"
"oli_9v" "oli_9"
"S_16v" "S_16"
"A0_B3v" "A0_B3"
"M25_M21_clkv" "M25_M21_clk"
"oli_20v" "oli_20"
"S_13_olv" "S_13_ol"
"A1_B0v" "A1_B0"
"olo_24v" "olo_24"
"olo_15v" "olo_15"
"olo_19v" "olo_19"
"P8__1v" "P8_<1>"
"S_2v" "S_2"
"S_6v" "S_6"
"oli_23v" "oli_23"
"oli_21v" "oli_21"
"A2_B6v" "A2_B6"
"oli_18v" "oli_18"
"net1402v" "net1402"
"net1899v" "net1899"
"A0_B2v" "A0_B2"
"B_6v" "B_6"
"oli_10v" "oli_10"
"net1774v" "net1774"
"net1367v" "net1367"
"oli_12v" "oli_12"
"P10__1v" "P10_<1>"
"net1885v" "net1885"
"S_9v" "S_9"
"net2287v" "net2287"
"olo_25v" "olo_25"
"olo_1v" "olo_1"
"A5_B3v" "A5_B3"
"B_5v" "B_5"
"net1844v" "net1844"
"oli_22v" "oli_22"
"net1647v" "net1647"
"S_15v" "S_15"
"oli_1v" "oli_1"
"olo_7v" "olo_7"
"oli_19v" "oli_19"
"S_10_olv" "S_10_ol"
"S_1v" "S_1"
"A5_B5v" "A5_B5"
"olo_23v" "olo_23"
"A0_B5v" "A0_B5"
"PP_12__1v" "PP_12_<1>"
"A4_B1v" "A4_B1"
"olo_3v" "olo_3"
"olo_5v" "olo_5"
"S8_S5_clkv" "S8_S5_clk"
"1v" "M_10_13_14_15_16_clk"
"B4_B7_clkv" "B4_B7_clk"
"P3__1v" "P3_<1>"
