HEADER
"PSFversion" "1.00"
"net38v" "net38"
"GDv" "GD"
"net46v" "net46"
"net50v" "net50"
"net42v" "net42"
"net34v" "net34"
"D_INv" "D_IN"
"net30v" "net30"
"Q_OUTv" "Q_OUT"
"clkv" "clk"
"VDv" "VD"
