HEADER
"PSFversion" "1.00"
"design" "(\"hw1\" \"InverterFan4_180nm\" \"schematic\" \"\")"
"simulator" "spectre"
"temperature" "27"
"host" ""
"date" "Oct 29 18:47:18 2014"
"title" ""
"analysisList" "()"
END
