HEADER
"PSFversion" "1.00"
"Time Stamp" "Oct 31 14:25:26 2014"
TYPE
"variable" STRUCT(
"value" FLOAT DOUBLE
) PROP( "key" "element" )
VALUE
"R" "variable" ( 4.11111111111111 ) PROP( )
"TEMPDC" "variable" ( 25 ) PROP( )
END
