HEADER
"PSFversion" "1.00"
"+3v" "M2"
"+3n" "NCSU_Analog_Parts_pmos4_ivpcell"
"+2v" "M3"
"+2n" "NCSU_Analog_Parts_pmos4_ivpcell"
"+1v" "M4"
"+1n" "NCSU_Analog_Parts_nmos4_ivpcell"
"+0v" "M5"
"+0n" "NCSU_Analog_Parts_nmos4_ivpcell"
