HEADER
"PSFversion" "1.00"
"M2v" "+3"
"M2n" "NCSU_Analog_Parts_pmos4_ivpcell"
"M3v" "+2"
"M3n" "NCSU_Analog_Parts_pmos4_ivpcell"
"M4v" "+1"
"M4n" "NCSU_Analog_Parts_nmos4_ivpcell"
"M5v" "+0"
"M5n" "NCSU_Analog_Parts_nmos4_ivpcell"
