HEADER
"PSFversion" "1.00"
"Av" "A"
"Bv" "B"
"Outv" "Out"
"1v" "6"
