HEADER
"PSFversion" "1.00"
"net18v" "net18"
"B_INv" "B_IN"
"OUT_NAND21v" "OUT_NAND21"
"GDv" "GD"
"VDv" "VD"
"A_INv" "A_IN"
