HEADER
"PSFversion" "1.00"
"I15v" "XI15"
"I15n" "Proj_lib_DFF_STATIC_CMOS_schematic"
"I7v" "XI7"
"I7n" "Proj_lib_FF_Positive_edge_schematic"
"I6v" "XI6"
"I6n" "Proj_lib_NAND_StaticCMOS_schematic"
"I4v" "XI4"
"I4n" "Proj_lib_AND21_StaticCMOS_schematic"
"I3v" "XI3"
"I3n" "Proj_lib_AND21_StaticCMOS_schematic"
"I2v" "XI2"
"I2n" "Proj_lib_XOR21_StaticCMOS_schematic"
"I1v" "XI1"
"I1n" "Proj_lib_XOR21_StaticCMOS_schematic"
"I0v" "XI0"
"I0n" "Proj_lib_XOR21_StaticCMOS_schematic"
