HEADER
"PSFversion" "1.00"
"XI15v" "I15"
"XI15n" "Proj_lib_DFF_STATIC_CMOS_schematic"
"XI7v" "I7"
"XI7n" "Proj_lib_FF_Positive_edge_schematic"
"XI6v" "I6"
"XI6n" "Proj_lib_NAND_StaticCMOS_schematic"
"XI4v" "I4"
"XI4n" "Proj_lib_AND21_StaticCMOS_schematic"
"XI3v" "I3"
"XI3n" "Proj_lib_AND21_StaticCMOS_schematic"
"XI2v" "I2"
"XI2n" "Proj_lib_XOR21_StaticCMOS_schematic"
"XI1v" "I1"
"XI1n" "Proj_lib_XOR21_StaticCMOS_schematic"
"XI0v" "I0"
"XI0n" "Proj_lib_XOR21_StaticCMOS_schematic"
