HEADER
"PSFversion" "1.00"
"net61v" "net61"
"p_in_1v" "p_in_1"
"c_in_2v" "c_in_2"
"c_in_1v" "c_in_1"
"c_in_3v" "c_in_3"
"p_in_2v" "p_in_2"
"p_in_3v" "p_in_3"
"and_outv" "and_out"
"d_outv" "d_out"
"nand_outv" "nand_out"
"ff_outv" "ff_out"
"VDv" "VD"
"GDv" "GD"
"xor_3v" "xor_3"
"xor_2v" "xor_2"
"xor_1v" "xor_1"
"clkv" "clk"
