HEADER
"PSFversion" "1.00"
"A_INv" "A_IN"
"net8v" "net8"
"net15v" "net15"
"B_INv" "B_IN"
"OUT_OR21v" "OUT_OR21"
