HEADER
"PSFversion" "1.00"
"__NEXT_FILE__" "Proj_lib_OR21_StaticCMOS_schematic"
