HEADER
"PSFversion" "1.00"
"gnd!v" "0"
"vdd!v" "vdd!"
"__NEXT_FILE__" "Proj_lib_OR21_StaticCMOS_schematic"
