HEADER
"PSFversion" "1.00"
"SUM_OUTv" "SUM_OUT"
"CARRY_OUTv" "CARRY_OUT"
"B_INv" "B_IN"
"VDv" "VD"
"GDv" "GD"
"C_INv" "C_IN"
"A_INv" "A_IN"
"8v" "1"
"9v" "2"
"10v" "3"
"11v" "4"
"12v" "5"
"13v" "6"
"14v" "7"
"15v" "15"
"16v" "16"
"17v" "17"
"18v" "18"
"19v" "19"
