HEADER
"PSFversion" "1.00"
"+81v" "C20"
"+81n" "NCSU_Analog_Parts_pcapacitor_ivpcell"
"+80v" "C21"
"+80n" "NCSU_Analog_Parts_pcapacitor_ivpcell"
"+79v" "C22"
"+79n" "NCSU_Analog_Parts_pcapacitor_ivpcell"
"+78v" "C23"
"+78n" "NCSU_Analog_Parts_pcapacitor_ivpcell"
"+77v" "C24"
"+77n" "NCSU_Analog_Parts_pcapacitor_ivpcell"
"+76v" "C25"
"+76n" "NCSU_Analog_Parts_pcapacitor_ivpcell"
"+75v" "C26"
"+75n" "NCSU_Analog_Parts_pcapacitor_ivpcell"
"+74v" "C27"
"+74n" "NCSU_Analog_Parts_pcapacitor_ivpcell"
"+73v" "C28"
"+73n" "NCSU_Analog_Parts_pcapacitor_ivpcell"
"+72v" "C29"
"+72n" "NCSU_Analog_Parts_pcapacitor_ivpcell"
"+71v" "C30"
"+71n" "NCSU_Analog_Parts_pcapacitor_ivpcell"
"+70v" "C31"
"+70n" "NCSU_Analog_Parts_pcapacitor_ivpcell"
"+69v" "C32"
"+69n" "NCSU_Analog_Parts_pcapacitor_ivpcell"
"+68v" "C33"
"+68n" "NCSU_Analog_Parts_pcapacitor_ivpcell"
"+67v" "C34"
"+67n" "NCSU_Analog_Parts_pcapacitor_ivpcell"
"+66v" "C35"
"+66n" "NCSU_Analog_Parts_pcapacitor_ivpcell"
"+65v" "C36"
"+65n" "NCSU_Analog_Parts_pcapacitor_ivpcell"
"+64v" "C37"
"+64n" "NCSU_Analog_Parts_pcapacitor_ivpcell"
"+63v" "C38"
"+63n" "NCSU_Analog_Parts_pcapacitor_ivpcell"
"+62v" "C39"
"+62n" "NCSU_Analog_Parts_pcapacitor_ivpcell"
"+61v" "C40"
"+61n" "NCSU_Analog_Parts_pcapacitor_ivpcell"
"+60v" "C41"
"+60n" "NCSU_Analog_Parts_pcapacitor_ivpcell"
"+59v" "C42"
"+59n" "NCSU_Analog_Parts_pcapacitor_ivpcell"
"+58v" "C43"
"+58n" "NCSU_Analog_Parts_pcapacitor_ivpcell"
"+57v" "C44"
"+57n" "NCSU_Analog_Parts_pcapacitor_ivpcell"
"+56v" "C45"
"+56n" "NCSU_Analog_Parts_pcapacitor_ivpcell"
"+55v" "C46"
"+55n" "NCSU_Analog_Parts_pcapacitor_ivpcell"
"+54v" "C47"
"+54n" "NCSU_Analog_Parts_pcapacitor_ivpcell"
"+53v" "C48"
"+53n" "NCSU_Analog_Parts_pcapacitor_ivpcell"
"+52v" "C49"
"+52n" "NCSU_Analog_Parts_pcapacitor_ivpcell"
"+51v" "C50"
"+51n" "NCSU_Analog_Parts_pcapacitor_ivpcell"
"+50v" "C51"
"+50n" "NCSU_Analog_Parts_pcapacitor_ivpcell"
"+49v" "C52"
"+49n" "NCSU_Analog_Parts_pcapacitor_ivpcell"
"+48v" "C53"
"+48n" "NCSU_Analog_Parts_pcapacitor_ivpcell"
"+47v" "C54"
"+47n" "NCSU_Analog_Parts_pcapacitor_ivpcell"
"+46v" "C55"
"+46n" "NCSU_Analog_Parts_pcapacitor_ivpcell"
"+45v" "C56"
"+45n" "NCSU_Analog_Parts_pcapacitor_ivpcell"
"+44v" "C57"
"+44n" "NCSU_Analog_Parts_pcapacitor_ivpcell"
"+43v" "C58"
"+43n" "NCSU_Analog_Parts_pcapacitor_ivpcell"
"+42v" "C59"
"+42n" "NCSU_Analog_Parts_pcapacitor_ivpcell"
"+41v" "C60"
"+41n" "NCSU_Analog_Parts_pcapacitor_ivpcell"
"+40v" "C61"
"+40n" "NCSU_Analog_Parts_pcapacitor_ivpcell"
"+39v" "C62"
"+39n" "NCSU_Analog_Parts_pcapacitor_ivpcell"
"+38v" "C63"
"+38n" "NCSU_Analog_Parts_pcapacitor_ivpcell"
"+37v" "C64"
"+37n" "NCSU_Analog_Parts_pcapacitor_ivpcell"
"+36v" "C65"
"+36n" "NCSU_Analog_Parts_pcapacitor_ivpcell"
"+35v" "C66"
"+35n" "NCSU_Analog_Parts_pcapacitor_ivpcell"
"+34v" "C67"
"+34n" "NCSU_Analog_Parts_pcapacitor_ivpcell"
"+33v" "C68"
"+33n" "NCSU_Analog_Parts_pcapacitor_ivpcell"
"+32v" "C69"
"+32n" "NCSU_Analog_Parts_pcapacitor_ivpcell"
"+31v" "C70"
"+31n" "NCSU_Analog_Parts_pcapacitor_ivpcell"
"+30v" "C71"
"+30n" "NCSU_Analog_Parts_pcapacitor_ivpcell"
"+29v" "C72"
"+29n" "NCSU_Analog_Parts_pcapacitor_ivpcell"
"+28v" "C73"
"+28n" "NCSU_Analog_Parts_pcapacitor_ivpcell"
"+27v" "M74"
"+27n" "NCSU_Analog_Parts_pmos4_ivpcell"
"+26v" "M75"
"+26n" "NCSU_Analog_Parts_pmos4_ivpcell"
"+25v" "M76"
"+25n" "NCSU_Analog_Parts_pmos4_ivpcell"
"+24v" "M77"
"+24n" "NCSU_Analog_Parts_pmos4_ivpcell"
"+23v" "M78"
"+23n" "NCSU_Analog_Parts_pmos4_ivpcell"
"+22v" "M79"
"+22n" "NCSU_Analog_Parts_pmos4_ivpcell"
"+21v" "M80"
"+21n" "NCSU_Analog_Parts_pmos4_ivpcell"
"+20v" "M81"
"+20n" "NCSU_Analog_Parts_pmos4_ivpcell"
"+19v" "M82"
"+19n" "NCSU_Analog_Parts_pmos4_ivpcell"
"+18v" "M83"
"+18n" "NCSU_Analog_Parts_pmos4_ivpcell"
"+17v" "M84"
"+17n" "NCSU_Analog_Parts_pmos4_ivpcell"
"+16v" "M85"
"+16n" "NCSU_Analog_Parts_pmos4_ivpcell"
"+15v" "M86"
"+15n" "NCSU_Analog_Parts_pmos4_ivpcell"
"+14v" "M87"
"+14n" "NCSU_Analog_Parts_pmos4_ivpcell"
"+13v" "M88"
"+13n" "NCSU_Analog_Parts_nmos4_ivpcell"
"+12v" "M89"
"+12n" "NCSU_Analog_Parts_nmos4_ivpcell"
"+11v" "M90"
"+11n" "NCSU_Analog_Parts_nmos4_ivpcell"
"+10v" "M91"
"+10n" "NCSU_Analog_Parts_nmos4_ivpcell"
"+9v" "M92"
"+9n" "NCSU_Analog_Parts_nmos4_ivpcell"
"+8v" "M93"
"+8n" "NCSU_Analog_Parts_nmos4_ivpcell"
"+7v" "M94"
"+7n" "NCSU_Analog_Parts_nmos4_ivpcell"
"+6v" "M95"
"+6n" "NCSU_Analog_Parts_nmos4_ivpcell"
"+5v" "M96"
"+5n" "NCSU_Analog_Parts_nmos4_ivpcell"
"+4v" "M97"
"+4n" "NCSU_Analog_Parts_nmos4_ivpcell"
"+3v" "M98"
"+3n" "NCSU_Analog_Parts_nmos4_ivpcell"
"+2v" "M99"
"+2n" "NCSU_Analog_Parts_nmos4_ivpcell"
"+1v" "M100"
"+1n" "NCSU_Analog_Parts_nmos4_ivpcell"
"+0v" "M101"
"+0n" "NCSU_Analog_Parts_nmos4_ivpcell"
