HEADER
"PSFversion" "1.00"
"SUM_OUTv" "SUM_OUT"
"CARRY_OUTv" "CARRY_OUT"
"B_INv" "B_IN"
"VDv" "VD"
"GDv" "GD"
"C_INv" "C_IN"
"A_INv" "A_IN"
"1v" "8"
"2v" "9"
"3v" "10"
"4v" "11"
"5v" "12"
"6v" "13"
"7v" "14"
"15v" "15"
"16v" "16"
"17v" "17"
"18v" "18"
"19v" "19"
