HEADER
"PSFversion" "1.00"
"C20v" "+81"
"C20n" "NCSU_Analog_Parts_pcapacitor_ivpcell"
"C21v" "+80"
"C21n" "NCSU_Analog_Parts_pcapacitor_ivpcell"
"C22v" "+79"
"C22n" "NCSU_Analog_Parts_pcapacitor_ivpcell"
"C23v" "+78"
"C23n" "NCSU_Analog_Parts_pcapacitor_ivpcell"
"C24v" "+77"
"C24n" "NCSU_Analog_Parts_pcapacitor_ivpcell"
"C25v" "+76"
"C25n" "NCSU_Analog_Parts_pcapacitor_ivpcell"
"C26v" "+75"
"C26n" "NCSU_Analog_Parts_pcapacitor_ivpcell"
"C27v" "+74"
"C27n" "NCSU_Analog_Parts_pcapacitor_ivpcell"
"C28v" "+73"
"C28n" "NCSU_Analog_Parts_pcapacitor_ivpcell"
"C29v" "+72"
"C29n" "NCSU_Analog_Parts_pcapacitor_ivpcell"
"C30v" "+71"
"C30n" "NCSU_Analog_Parts_pcapacitor_ivpcell"
"C31v" "+70"
"C31n" "NCSU_Analog_Parts_pcapacitor_ivpcell"
"C32v" "+69"
"C32n" "NCSU_Analog_Parts_pcapacitor_ivpcell"
"C33v" "+68"
"C33n" "NCSU_Analog_Parts_pcapacitor_ivpcell"
"C34v" "+67"
"C34n" "NCSU_Analog_Parts_pcapacitor_ivpcell"
"C35v" "+66"
"C35n" "NCSU_Analog_Parts_pcapacitor_ivpcell"
"C36v" "+65"
"C36n" "NCSU_Analog_Parts_pcapacitor_ivpcell"
"C37v" "+64"
"C37n" "NCSU_Analog_Parts_pcapacitor_ivpcell"
"C38v" "+63"
"C38n" "NCSU_Analog_Parts_pcapacitor_ivpcell"
"C39v" "+62"
"C39n" "NCSU_Analog_Parts_pcapacitor_ivpcell"
"C40v" "+61"
"C40n" "NCSU_Analog_Parts_pcapacitor_ivpcell"
"C41v" "+60"
"C41n" "NCSU_Analog_Parts_pcapacitor_ivpcell"
"C42v" "+59"
"C42n" "NCSU_Analog_Parts_pcapacitor_ivpcell"
"C43v" "+58"
"C43n" "NCSU_Analog_Parts_pcapacitor_ivpcell"
"C44v" "+57"
"C44n" "NCSU_Analog_Parts_pcapacitor_ivpcell"
"C45v" "+56"
"C45n" "NCSU_Analog_Parts_pcapacitor_ivpcell"
"C46v" "+55"
"C46n" "NCSU_Analog_Parts_pcapacitor_ivpcell"
"C47v" "+54"
"C47n" "NCSU_Analog_Parts_pcapacitor_ivpcell"
"C48v" "+53"
"C48n" "NCSU_Analog_Parts_pcapacitor_ivpcell"
"C49v" "+52"
"C49n" "NCSU_Analog_Parts_pcapacitor_ivpcell"
"C50v" "+51"
"C50n" "NCSU_Analog_Parts_pcapacitor_ivpcell"
"C51v" "+50"
"C51n" "NCSU_Analog_Parts_pcapacitor_ivpcell"
"C52v" "+49"
"C52n" "NCSU_Analog_Parts_pcapacitor_ivpcell"
"C53v" "+48"
"C53n" "NCSU_Analog_Parts_pcapacitor_ivpcell"
"C54v" "+47"
"C54n" "NCSU_Analog_Parts_pcapacitor_ivpcell"
"C55v" "+46"
"C55n" "NCSU_Analog_Parts_pcapacitor_ivpcell"
"C56v" "+45"
"C56n" "NCSU_Analog_Parts_pcapacitor_ivpcell"
"C57v" "+44"
"C57n" "NCSU_Analog_Parts_pcapacitor_ivpcell"
"C58v" "+43"
"C58n" "NCSU_Analog_Parts_pcapacitor_ivpcell"
"C59v" "+42"
"C59n" "NCSU_Analog_Parts_pcapacitor_ivpcell"
"C60v" "+41"
"C60n" "NCSU_Analog_Parts_pcapacitor_ivpcell"
"C61v" "+40"
"C61n" "NCSU_Analog_Parts_pcapacitor_ivpcell"
"C62v" "+39"
"C62n" "NCSU_Analog_Parts_pcapacitor_ivpcell"
"C63v" "+38"
"C63n" "NCSU_Analog_Parts_pcapacitor_ivpcell"
"C64v" "+37"
"C64n" "NCSU_Analog_Parts_pcapacitor_ivpcell"
"C65v" "+36"
"C65n" "NCSU_Analog_Parts_pcapacitor_ivpcell"
"C66v" "+35"
"C66n" "NCSU_Analog_Parts_pcapacitor_ivpcell"
"C67v" "+34"
"C67n" "NCSU_Analog_Parts_pcapacitor_ivpcell"
"C68v" "+33"
"C68n" "NCSU_Analog_Parts_pcapacitor_ivpcell"
"C69v" "+32"
"C69n" "NCSU_Analog_Parts_pcapacitor_ivpcell"
"C70v" "+31"
"C70n" "NCSU_Analog_Parts_pcapacitor_ivpcell"
"C71v" "+30"
"C71n" "NCSU_Analog_Parts_pcapacitor_ivpcell"
"C72v" "+29"
"C72n" "NCSU_Analog_Parts_pcapacitor_ivpcell"
"C73v" "+28"
"C73n" "NCSU_Analog_Parts_pcapacitor_ivpcell"
"M74v" "+27"
"M74n" "NCSU_Analog_Parts_pmos4_ivpcell"
"M75v" "+26"
"M75n" "NCSU_Analog_Parts_pmos4_ivpcell"
"M76v" "+25"
"M76n" "NCSU_Analog_Parts_pmos4_ivpcell"
"M77v" "+24"
"M77n" "NCSU_Analog_Parts_pmos4_ivpcell"
"M78v" "+23"
"M78n" "NCSU_Analog_Parts_pmos4_ivpcell"
"M79v" "+22"
"M79n" "NCSU_Analog_Parts_pmos4_ivpcell"
"M80v" "+21"
"M80n" "NCSU_Analog_Parts_pmos4_ivpcell"
"M81v" "+20"
"M81n" "NCSU_Analog_Parts_pmos4_ivpcell"
"M82v" "+19"
"M82n" "NCSU_Analog_Parts_pmos4_ivpcell"
"M83v" "+18"
"M83n" "NCSU_Analog_Parts_pmos4_ivpcell"
"M84v" "+17"
"M84n" "NCSU_Analog_Parts_pmos4_ivpcell"
"M85v" "+16"
"M85n" "NCSU_Analog_Parts_pmos4_ivpcell"
"M86v" "+15"
"M86n" "NCSU_Analog_Parts_pmos4_ivpcell"
"M87v" "+14"
"M87n" "NCSU_Analog_Parts_pmos4_ivpcell"
"M88v" "+13"
"M88n" "NCSU_Analog_Parts_nmos4_ivpcell"
"M89v" "+12"
"M89n" "NCSU_Analog_Parts_nmos4_ivpcell"
"M90v" "+11"
"M90n" "NCSU_Analog_Parts_nmos4_ivpcell"
"M91v" "+10"
"M91n" "NCSU_Analog_Parts_nmos4_ivpcell"
"M92v" "+9"
"M92n" "NCSU_Analog_Parts_nmos4_ivpcell"
"M93v" "+8"
"M93n" "NCSU_Analog_Parts_nmos4_ivpcell"
"M94v" "+7"
"M94n" "NCSU_Analog_Parts_nmos4_ivpcell"
"M95v" "+6"
"M95n" "NCSU_Analog_Parts_nmos4_ivpcell"
"M96v" "+5"
"M96n" "NCSU_Analog_Parts_nmos4_ivpcell"
"M97v" "+4"
"M97n" "NCSU_Analog_Parts_nmos4_ivpcell"
"M98v" "+3"
"M98n" "NCSU_Analog_Parts_nmos4_ivpcell"
"M99v" "+2"
"M99n" "NCSU_Analog_Parts_nmos4_ivpcell"
"M100v" "+1"
"M100n" "NCSU_Analog_Parts_nmos4_ivpcell"
"M101v" "+0"
"M101n" "NCSU_Analog_Parts_nmos4_ivpcell"
