HEADER
"PSFversion" "1.00"
"__NEXT_FILE__" "Proj_lib_Full_Adder_Mirror_StaticCMOS_extracted"
