HEADER
"PSFversion" "1.00"
"design" "(\"Proj_lib\" \"TSPC_FF_PositiveEdge\" \"schematic\" \"\")"
"simulator" "hspiceS"
"temperature" "25"
"host" ""
"date" "Nov 14 20:34:37 2014"
"title" ""
"analysisList" "()"
END
