HEADER
"PSFversion" "1.00"
"net20v" "net20"
"net51v" "net51"
"net92v" "net92"
"net91v" "net91"
"net80v" "net80"
"net71v" "net71"
"net32v" "net32"
"net108v" "net108"
"net8v" "net8"
"net40v" "net40"
"net88v" "net88"
"net76v" "net76"
"net39v" "net39"
"VDv" "VD"
"CARRY_OUTv" "CARRY_OUT"
"GDv" "GD"
"SUM_OUTv" "SUM_OUT"
"B_INv" "B_IN"
"A_INv" "A_IN"
"C_INv" "C_IN"
