HEADER
"PSFversion" "1.00"
"net21v" "net21"
"in<0>v" "in_0"
"out<0>v" "out_0"
"out<1>v" "out_1"
"out<1>v" "out_1"
"out<0>v" "out_0"
"internal<0>v" "internal_0"
"internal<1>v" "internal_1"
"internal<0>v" "internal_0"
"internal<1>v" "internal_1"
"in<1>v" "in_1"
"in<0>v" "in_0"
"in<1>v" "in_1"
