HEADER
"PSFversion" "1.00"
"net21v" "net21"
"in_0v" "in<0>"
"out_0v" "out<0>"
"out_1v" "out<1>"
"out_1v" "out<1>"
"out_0v" "out<0>"
"internal_0v" "internal<0>"
"internal_1v" "internal<1>"
"internal_0v" "internal<0>"
"internal_1v" "internal<1>"
"in_1v" "in<1>"
"in_0v" "in<0>"
"in_1v" "in<1>"
