HEADER
"PSFversion" "1.00"
"I9v" "XI9"
"I9n" "jhalak_lib_inverterp_schematic"
"I10v" "XI10"
"I10n" "jhalak_lib_inverterp_schematic"
"I14v" "XI14"
"I14n" "jhalak_lib_inverterp_schematic"
"I12v" "XI12"
"I12n" "jhalak_lib_inverterp_schematic"
"I13v" "XI13"
"I13n" "jhalak_lib_inverterp_schematic"
"C1v" "C1"
"C1n" "NCSU_Analog_Parts_cap_symbol"
"C0v" "C0"
"C0n" "NCSU_Analog_Parts_cap_symbol"
