HEADER
"PSFversion" "1.00"
"XI9v" "I9"
"XI9n" "jhalak_lib_inverterp_schematic"
"XI10v" "I10"
"XI10n" "jhalak_lib_inverterp_schematic"
"XI14v" "I14"
"XI14n" "jhalak_lib_inverterp_schematic"
"XI12v" "I12"
"XI12n" "jhalak_lib_inverterp_schematic"
"XI13v" "I13"
"XI13n" "jhalak_lib_inverterp_schematic"
"C1v" "C1"
"C1n" "NCSU_Analog_Parts_cap_symbol"
"C0v" "C0"
"C0n" "NCSU_Analog_Parts_cap_symbol"
