HEADER
"PSFversion" "1.00"
"C2v" "+12"
"C2n" "NCSU_Analog_Parts_pcapacitor_ivpcell"
"C3v" "+11"
"C3n" "NCSU_Analog_Parts_pcapacitor_ivpcell"
"C4v" "+10"
"C4n" "NCSU_Analog_Parts_pcapacitor_ivpcell"
"C5v" "+9"
"C5n" "NCSU_Analog_Parts_pcapacitor_ivpcell"
"C6v" "+8"
"C6n" "NCSU_Analog_Parts_pcapacitor_ivpcell"
"C7v" "+7"
"C7n" "NCSU_Analog_Parts_pcapacitor_ivpcell"
"C8v" "+6"
"C8n" "NCSU_Analog_Parts_pcapacitor_ivpcell"
"C9v" "+5"
"C9n" "NCSU_Analog_Parts_pcapacitor_ivpcell"
"C10v" "+4"
"C10n" "NCSU_Analog_Parts_pcapacitor_ivpcell"
"M11v" "+3"
"M11n" "NCSU_Analog_Parts_pmos4_ivpcell"
"M12v" "+2"
"M12n" "NCSU_Analog_Parts_pmos4_ivpcell"
"M13v" "+1"
"M13n" "NCSU_Analog_Parts_nmos4_ivpcell"
"M14v" "+0"
"M14n" "NCSU_Analog_Parts_nmos4_ivpcell"
