HEADER
"PSFversion" "1.00"
"OUT_NAND21v" "OUT_NAND21"
"B_INv" "B_IN"
"VDv" "VD"
"GDv" "GD"
"A_INv" "A_IN"
"1v" "6"
