HEADER
"PSFversion" "1.00"
"+12v" "C2"
"+12n" "NCSU_Analog_Parts_pcapacitor_ivpcell"
"+11v" "C3"
"+11n" "NCSU_Analog_Parts_pcapacitor_ivpcell"
"+10v" "C4"
"+10n" "NCSU_Analog_Parts_pcapacitor_ivpcell"
"+9v" "C5"
"+9n" "NCSU_Analog_Parts_pcapacitor_ivpcell"
"+8v" "C6"
"+8n" "NCSU_Analog_Parts_pcapacitor_ivpcell"
"+7v" "C7"
"+7n" "NCSU_Analog_Parts_pcapacitor_ivpcell"
"+6v" "C8"
"+6n" "NCSU_Analog_Parts_pcapacitor_ivpcell"
"+5v" "C9"
"+5n" "NCSU_Analog_Parts_pcapacitor_ivpcell"
"+4v" "C10"
"+4n" "NCSU_Analog_Parts_pcapacitor_ivpcell"
"+3v" "M11"
"+3n" "NCSU_Analog_Parts_pmos4_ivpcell"
"+2v" "M12"
"+2n" "NCSU_Analog_Parts_pmos4_ivpcell"
"+1v" "M13"
"+1n" "NCSU_Analog_Parts_nmos4_ivpcell"
"+0v" "M14"
"+0n" "NCSU_Analog_Parts_nmos4_ivpcell"
