HEADER
"PSFversion" "1.00"
"design" "(\"Proj_lib\" \"XOR21_StaticCMOS\" \"schematic\" \"\")"
"simulator" "hspiceS"
"temperature" "25"
"host" ""
"date" "Nov 20 19:31:05 2014"
"title" ""
"analysisList" "()"
END
