HEADER
"PSFversion" "1.00"
"+11756v" "C1501"
"+11756n" "NCSU_Analog_Parts_pcapacitor_ivpcell"
"+11755v" "C1502"
"+11755n" "NCSU_Analog_Parts_pcapacitor_ivpcell"
"+11670v" "C1503"
"+11670n" "NCSU_Analog_Parts_pcapacitor_ivpcell"
"+11669v" "C1504"
"+11669n" "NCSU_Analog_Parts_pcapacitor_ivpcell"
"+11586v" "C1505"
"+11586n" "NCSU_Analog_Parts_pcapacitor_ivpcell"
"+11557v" "C1506"
"+11557n" "NCSU_Analog_Parts_pcapacitor_ivpcell"
"+11541v" "C1507"
"+11541n" "NCSU_Analog_Parts_pcapacitor_ivpcell"
"+11531v" "C1508"
"+11531n" "NCSU_Analog_Parts_pcapacitor_ivpcell"
"+11513v" "C1509"
"+11513n" "NCSU_Analog_Parts_pcapacitor_ivpcell"
"+11471v" "C1510"
"+11471n" "NCSU_Analog_Parts_pcapacitor_ivpcell"
"+11470v" "C1511"
"+11470n" "NCSU_Analog_Parts_pcapacitor_ivpcell"
"+11451v" "C1512"
"+11451n" "NCSU_Analog_Parts_pcapacitor_ivpcell"
"+11426v" "C1513"
"+11426n" "NCSU_Analog_Parts_pcapacitor_ivpcell"
"+11425v" "C1514"
"+11425n" "NCSU_Analog_Parts_pcapacitor_ivpcell"
"+11367v" "C1515"
"+11367n" "NCSU_Analog_Parts_pcapacitor_ivpcell"
"+11366v" "C1516"
"+11366n" "NCSU_Analog_Parts_pcapacitor_ivpcell"
"+11350v" "C1517"
"+11350n" "NCSU_Analog_Parts_pcapacitor_ivpcell"
"+11345v" "C1518"
"+11345n" "NCSU_Analog_Parts_pcapacitor_ivpcell"
"+11343v" "C1519"
"+11343n" "NCSU_Analog_Parts_pcapacitor_ivpcell"
"+11339v" "C1520"
"+11339n" "NCSU_Analog_Parts_pcapacitor_ivpcell"
"+11321v" "C1521"
"+11321n" "NCSU_Analog_Parts_pcapacitor_ivpcell"
"+11314v" "C1522"
"+11314n" "NCSU_Analog_Parts_pcapacitor_ivpcell"
"+11312v" "C1523"
"+11312n" "NCSU_Analog_Parts_pcapacitor_ivpcell"
"+11311v" "C1524"
"+11311n" "NCSU_Analog_Parts_pcapacitor_ivpcell"
"+11310v" "C1525"
"+11310n" "NCSU_Analog_Parts_pcapacitor_ivpcell"
"+11309v" "C1526"
"+11309n" "NCSU_Analog_Parts_pcapacitor_ivpcell"
"+11308v" "C1527"
"+11308n" "NCSU_Analog_Parts_pcapacitor_ivpcell"
"+11307v" "C1528"
"+11307n" "NCSU_Analog_Parts_pcapacitor_ivpcell"
"+11304v" "C1529"
"+11304n" "NCSU_Analog_Parts_pcapacitor_ivpcell"
"+11303v" "C1530"
"+11303n" "NCSU_Analog_Parts_pcapacitor_ivpcell"
"+11302v" "C1531"
"+11302n" "NCSU_Analog_Parts_pcapacitor_ivpcell"
"+11300v" "C1532"
"+11300n" "NCSU_Analog_Parts_pcapacitor_ivpcell"
"+11299v" "C1533"
"+11299n" "NCSU_Analog_Parts_pcapacitor_ivpcell"
"+11296v" "C1534"
"+11296n" "NCSU_Analog_Parts_pcapacitor_ivpcell"
"+11295v" "C1535"
"+11295n" "NCSU_Analog_Parts_pcapacitor_ivpcell"
"+11292v" "C1536"
"+11292n" "NCSU_Analog_Parts_pcapacitor_ivpcell"
"+11287v" "C1537"
"+11287n" "NCSU_Analog_Parts_pcapacitor_ivpcell"
"+11286v" "C1538"
"+11286n" "NCSU_Analog_Parts_pcapacitor_ivpcell"
"+11283v" "C1539"
"+11283n" "NCSU_Analog_Parts_pcapacitor_ivpcell"
"+11282v" "C1540"
"+11282n" "NCSU_Analog_Parts_pcapacitor_ivpcell"
"+11281v" "C1541"
"+11281n" "NCSU_Analog_Parts_pcapacitor_ivpcell"
"+11280v" "C1542"
"+11280n" "NCSU_Analog_Parts_pcapacitor_ivpcell"
"+11279v" "C1543"
"+11279n" "NCSU_Analog_Parts_pcapacitor_ivpcell"
"+11277v" "C1544"
"+11277n" "NCSU_Analog_Parts_pcapacitor_ivpcell"
"+11276v" "C1545"
"+11276n" "NCSU_Analog_Parts_pcapacitor_ivpcell"
"+11274v" "C1546"
"+11274n" "NCSU_Analog_Parts_pcapacitor_ivpcell"
"+11273v" "C1547"
"+11273n" "NCSU_Analog_Parts_pcapacitor_ivpcell"
"+11272v" "C1548"
"+11272n" "NCSU_Analog_Parts_pcapacitor_ivpcell"
"+11271v" "C1549"
"+11271n" "NCSU_Analog_Parts_pcapacitor_ivpcell"
"+11270v" "C1550"
"+11270n" "NCSU_Analog_Parts_pcapacitor_ivpcell"
"+11269v" "C1551"
"+11269n" "NCSU_Analog_Parts_pcapacitor_ivpcell"
"+11268v" "C1552"
"+11268n" "NCSU_Analog_Parts_pcapacitor_ivpcell"
"+11267v" "C1553"
"+11267n" "NCSU_Analog_Parts_pcapacitor_ivpcell"
"+11266v" "C1554"
"+11266n" "NCSU_Analog_Parts_pcapacitor_ivpcell"
"+11265v" "C1555"
"+11265n" "NCSU_Analog_Parts_pcapacitor_ivpcell"
"+11264v" "C1556"
"+11264n" "NCSU_Analog_Parts_pcapacitor_ivpcell"
"+11262v" "C1557"
"+11262n" "NCSU_Analog_Parts_pcapacitor_ivpcell"
"+11260v" "C1558"
"+11260n" "NCSU_Analog_Parts_pcapacitor_ivpcell"
"+11259v" "C1559"
"+11259n" "NCSU_Analog_Parts_pcapacitor_ivpcell"
"+11255v" "C1560"
"+11255n" "NCSU_Analog_Parts_pcapacitor_ivpcell"
"+11254v" "C1561"
"+11254n" "NCSU_Analog_Parts_pcapacitor_ivpcell"
"+11251v" "C1562"
"+11251n" "NCSU_Analog_Parts_pcapacitor_ivpcell"
"+11249v" "C1563"
"+11249n" "NCSU_Analog_Parts_pcapacitor_ivpcell"
"+11246v" "C1564"
"+11246n" "NCSU_Analog_Parts_pcapacitor_ivpcell"
"+11242v" "C1565"
"+11242n" "NCSU_Analog_Parts_pcapacitor_ivpcell"
"+11241v" "C1566"
"+11241n" "NCSU_Analog_Parts_pcapacitor_ivpcell"
"+11235v" "C1567"
"+11235n" "NCSU_Analog_Parts_pcapacitor_ivpcell"
"+11216v" "C1568"
"+11216n" "NCSU_Analog_Parts_pcapacitor_ivpcell"
"+11214v" "C1569"
"+11214n" "NCSU_Analog_Parts_pcapacitor_ivpcell"
"+11213v" "C1570"
"+11213n" "NCSU_Analog_Parts_pcapacitor_ivpcell"
"+11206v" "C1571"
"+11206n" "NCSU_Analog_Parts_pcapacitor_ivpcell"
"+11204v" "C1572"
"+11204n" "NCSU_Analog_Parts_pcapacitor_ivpcell"
"+11203v" "C1573"
"+11203n" "NCSU_Analog_Parts_pcapacitor_ivpcell"
"+11202v" "C1574"
"+11202n" "NCSU_Analog_Parts_pcapacitor_ivpcell"
"+11182v" "C1575"
"+11182n" "NCSU_Analog_Parts_pcapacitor_ivpcell"
"+11181v" "C1576"
"+11181n" "NCSU_Analog_Parts_pcapacitor_ivpcell"
"+11172v" "C1577"
"+11172n" "NCSU_Analog_Parts_pcapacitor_ivpcell"
"+11150v" "C1578"
"+11150n" "NCSU_Analog_Parts_pcapacitor_ivpcell"
"+11138v" "C1579"
"+11138n" "NCSU_Analog_Parts_pcapacitor_ivpcell"
"+11119v" "C1580"
"+11119n" "NCSU_Analog_Parts_pcapacitor_ivpcell"
"+11105v" "C1581"
"+11105n" "NCSU_Analog_Parts_pcapacitor_ivpcell"
"+11085v" "C1582"
"+11085n" "NCSU_Analog_Parts_pcapacitor_ivpcell"
"+10977v" "C1583"
"+10977n" "NCSU_Analog_Parts_pcapacitor_ivpcell"
"+10956v" "C1584"
"+10956n" "NCSU_Analog_Parts_pcapacitor_ivpcell"
"+10953v" "C1585"
"+10953n" "NCSU_Analog_Parts_pcapacitor_ivpcell"
"+10948v" "C1586"
"+10948n" "NCSU_Analog_Parts_pcapacitor_ivpcell"
"+10941v" "C1587"
"+10941n" "NCSU_Analog_Parts_pcapacitor_ivpcell"
"+10936v" "C1588"
"+10936n" "NCSU_Analog_Parts_pcapacitor_ivpcell"
"+10935v" "C1589"
"+10935n" "NCSU_Analog_Parts_pcapacitor_ivpcell"
"+10934v" "C1590"
"+10934n" "NCSU_Analog_Parts_pcapacitor_ivpcell"
"+10933v" "C1591"
"+10933n" "NCSU_Analog_Parts_pcapacitor_ivpcell"
"+10930v" "C1592"
"+10930n" "NCSU_Analog_Parts_pcapacitor_ivpcell"
"+10929v" "C1593"
"+10929n" "NCSU_Analog_Parts_pcapacitor_ivpcell"
"+10927v" "C1594"
"+10927n" "NCSU_Analog_Parts_pcapacitor_ivpcell"
"+10924v" "C1595"
"+10924n" "NCSU_Analog_Parts_pcapacitor_ivpcell"
"+10921v" "C1596"
"+10921n" "NCSU_Analog_Parts_pcapacitor_ivpcell"
"+10917v" "C1597"
"+10917n" "NCSU_Analog_Parts_pcapacitor_ivpcell"
"+10913v" "C1598"
"+10913n" "NCSU_Analog_Parts_pcapacitor_ivpcell"
"+10909v" "C1599"
"+10909n" "NCSU_Analog_Parts_pcapacitor_ivpcell"
"+10907v" "C1600"
"+10907n" "NCSU_Analog_Parts_pcapacitor_ivpcell"
"+10906v" "C1601"
"+10906n" "NCSU_Analog_Parts_pcapacitor_ivpcell"
"+10904v" "C1602"
"+10904n" "NCSU_Analog_Parts_pcapacitor_ivpcell"
"+10903v" "C1603"
"+10903n" "NCSU_Analog_Parts_pcapacitor_ivpcell"
"+10900v" "C1604"
"+10900n" "NCSU_Analog_Parts_pcapacitor_ivpcell"
"+10898v" "C1605"
"+10898n" "NCSU_Analog_Parts_pcapacitor_ivpcell"
"+10897v" "C1606"
"+10897n" "NCSU_Analog_Parts_pcapacitor_ivpcell"
"+10894v" "C1607"
"+10894n" "NCSU_Analog_Parts_pcapacitor_ivpcell"
"+10891v" "C1608"
"+10891n" "NCSU_Analog_Parts_pcapacitor_ivpcell"
"+10886v" "C1609"
"+10886n" "NCSU_Analog_Parts_pcapacitor_ivpcell"
"+10879v" "C1610"
"+10879n" "NCSU_Analog_Parts_pcapacitor_ivpcell"
"+10878v" "C1611"
"+10878n" "NCSU_Analog_Parts_pcapacitor_ivpcell"
"+10856v" "C1612"
"+10856n" "NCSU_Analog_Parts_pcapacitor_ivpcell"
"+10848v" "C1613"
"+10848n" "NCSU_Analog_Parts_pcapacitor_ivpcell"
"+10847v" "C1614"
"+10847n" "NCSU_Analog_Parts_pcapacitor_ivpcell"
"+10846v" "C1615"
"+10846n" "NCSU_Analog_Parts_pcapacitor_ivpcell"
"+10826v" "C1616"
"+10826n" "NCSU_Analog_Parts_pcapacitor_ivpcell"
"+10764v" "C1617"
"+10764n" "NCSU_Analog_Parts_pcapacitor_ivpcell"
"+10763v" "C1618"
"+10763n" "NCSU_Analog_Parts_pcapacitor_ivpcell"
"+10739v" "C1619"
"+10739n" "NCSU_Analog_Parts_pcapacitor_ivpcell"
"+10738v" "C1620"
"+10738n" "NCSU_Analog_Parts_pcapacitor_ivpcell"
"+10732v" "C1621"
"+10732n" "NCSU_Analog_Parts_pcapacitor_ivpcell"
"+10611v" "C1622"
"+10611n" "NCSU_Analog_Parts_pcapacitor_ivpcell"
"+10595v" "C1623"
"+10595n" "NCSU_Analog_Parts_pcapacitor_ivpcell"
"+10578v" "C1624"
"+10578n" "NCSU_Analog_Parts_pcapacitor_ivpcell"
"+10530v" "C1625"
"+10530n" "NCSU_Analog_Parts_pcapacitor_ivpcell"
"+10529v" "C1626"
"+10529n" "NCSU_Analog_Parts_pcapacitor_ivpcell"
"+10397v" "C1627"
"+10397n" "NCSU_Analog_Parts_pcapacitor_ivpcell"
"+10396v" "C1628"
"+10396n" "NCSU_Analog_Parts_pcapacitor_ivpcell"
"+10311v" "C1629"
"+10311n" "NCSU_Analog_Parts_pcapacitor_ivpcell"
"+10308v" "C1630"
"+10308n" "NCSU_Analog_Parts_pcapacitor_ivpcell"
"+10250v" "C1631"
"+10250n" "NCSU_Analog_Parts_pcapacitor_ivpcell"
"+10176v" "C1632"
"+10176n" "NCSU_Analog_Parts_pcapacitor_ivpcell"
"+10060v" "C1633"
"+10060n" "NCSU_Analog_Parts_pcapacitor_ivpcell"
"+10034v" "C1634"
"+10034n" "NCSU_Analog_Parts_pcapacitor_ivpcell"
"+10033v" "C1635"
"+10033n" "NCSU_Analog_Parts_pcapacitor_ivpcell"
"+10032v" "C1636"
"+10032n" "NCSU_Analog_Parts_pcapacitor_ivpcell"
"+10003v" "C1637"
"+10003n" "NCSU_Analog_Parts_pcapacitor_ivpcell"
"+9964v" "C1638"
"+9964n" "NCSU_Analog_Parts_pcapacitor_ivpcell"
"+9940v" "C1639"
"+9940n" "NCSU_Analog_Parts_pcapacitor_ivpcell"
"+9917v" "C1640"
"+9917n" "NCSU_Analog_Parts_pcapacitor_ivpcell"
"+9901v" "C1641"
"+9901n" "NCSU_Analog_Parts_pcapacitor_ivpcell"
"+9899v" "C1642"
"+9899n" "NCSU_Analog_Parts_pcapacitor_ivpcell"
"+9895v" "C1643"
"+9895n" "NCSU_Analog_Parts_pcapacitor_ivpcell"
"+9893v" "C1644"
"+9893n" "NCSU_Analog_Parts_pcapacitor_ivpcell"
"+9892v" "C1645"
"+9892n" "NCSU_Analog_Parts_pcapacitor_ivpcell"
"+9891v" "C1646"
"+9891n" "NCSU_Analog_Parts_pcapacitor_ivpcell"
"+9890v" "C1647"
"+9890n" "NCSU_Analog_Parts_pcapacitor_ivpcell"
"+9889v" "C1648"
"+9889n" "NCSU_Analog_Parts_pcapacitor_ivpcell"
"+9888v" "C1649"
"+9888n" "NCSU_Analog_Parts_pcapacitor_ivpcell"
"+9887v" "C1650"
"+9887n" "NCSU_Analog_Parts_pcapacitor_ivpcell"
"+9886v" "C1651"
"+9886n" "NCSU_Analog_Parts_pcapacitor_ivpcell"
"+9885v" "C1652"
"+9885n" "NCSU_Analog_Parts_pcapacitor_ivpcell"
"+9884v" "C1653"
"+9884n" "NCSU_Analog_Parts_pcapacitor_ivpcell"
"+9883v" "C1654"
"+9883n" "NCSU_Analog_Parts_pcapacitor_ivpcell"
"+9881v" "C1655"
"+9881n" "NCSU_Analog_Parts_pcapacitor_ivpcell"
"+9880v" "C1656"
"+9880n" "NCSU_Analog_Parts_pcapacitor_ivpcell"
"+9879v" "C1657"
"+9879n" "NCSU_Analog_Parts_pcapacitor_ivpcell"
"+9878v" "C1658"
"+9878n" "NCSU_Analog_Parts_pcapacitor_ivpcell"
"+9875v" "C1659"
"+9875n" "NCSU_Analog_Parts_pcapacitor_ivpcell"
"+9874v" "C1660"
"+9874n" "NCSU_Analog_Parts_pcapacitor_ivpcell"
"+9873v" "C1661"
"+9873n" "NCSU_Analog_Parts_pcapacitor_ivpcell"
"+9872v" "C1662"
"+9872n" "NCSU_Analog_Parts_pcapacitor_ivpcell"
"+9871v" "C1663"
"+9871n" "NCSU_Analog_Parts_pcapacitor_ivpcell"
"+9870v" "C1664"
"+9870n" "NCSU_Analog_Parts_pcapacitor_ivpcell"
"+9869v" "C1665"
"+9869n" "NCSU_Analog_Parts_pcapacitor_ivpcell"
"+9868v" "C1666"
"+9868n" "NCSU_Analog_Parts_pcapacitor_ivpcell"
"+9867v" "C1667"
"+9867n" "NCSU_Analog_Parts_pcapacitor_ivpcell"
"+9866v" "C1668"
"+9866n" "NCSU_Analog_Parts_pcapacitor_ivpcell"
"+9865v" "C1669"
"+9865n" "NCSU_Analog_Parts_pcapacitor_ivpcell"
"+9863v" "C1670"
"+9863n" "NCSU_Analog_Parts_pcapacitor_ivpcell"
"+9861v" "C1671"
"+9861n" "NCSU_Analog_Parts_pcapacitor_ivpcell"
"+9860v" "C1672"
"+9860n" "NCSU_Analog_Parts_pcapacitor_ivpcell"
"+9858v" "C1673"
"+9858n" "NCSU_Analog_Parts_pcapacitor_ivpcell"
"+9857v" "C1674"
"+9857n" "NCSU_Analog_Parts_pcapacitor_ivpcell"
"+9856v" "C1675"
"+9856n" "NCSU_Analog_Parts_pcapacitor_ivpcell"
"+9855v" "C1676"
"+9855n" "NCSU_Analog_Parts_pcapacitor_ivpcell"
"+9854v" "C1677"
"+9854n" "NCSU_Analog_Parts_pcapacitor_ivpcell"
"+9853v" "C1678"
"+9853n" "NCSU_Analog_Parts_pcapacitor_ivpcell"
"+9852v" "C1679"
"+9852n" "NCSU_Analog_Parts_pcapacitor_ivpcell"
"+9850v" "C1680"
"+9850n" "NCSU_Analog_Parts_pcapacitor_ivpcell"
"+9849v" "C1681"
"+9849n" "NCSU_Analog_Parts_pcapacitor_ivpcell"
"+9848v" "C1682"
"+9848n" "NCSU_Analog_Parts_pcapacitor_ivpcell"
"+9847v" "C1683"
"+9847n" "NCSU_Analog_Parts_pcapacitor_ivpcell"
"+9846v" "C1684"
"+9846n" "NCSU_Analog_Parts_pcapacitor_ivpcell"
"+9845v" "C1685"
"+9845n" "NCSU_Analog_Parts_pcapacitor_ivpcell"
"+9844v" "C1686"
"+9844n" "NCSU_Analog_Parts_pcapacitor_ivpcell"
"+9842v" "C1687"
"+9842n" "NCSU_Analog_Parts_pcapacitor_ivpcell"
"+9841v" "C1688"
"+9841n" "NCSU_Analog_Parts_pcapacitor_ivpcell"
"+9840v" "C1689"
"+9840n" "NCSU_Analog_Parts_pcapacitor_ivpcell"
"+9839v" "C1690"
"+9839n" "NCSU_Analog_Parts_pcapacitor_ivpcell"
"+9837v" "C1691"
"+9837n" "NCSU_Analog_Parts_pcapacitor_ivpcell"
"+9836v" "C1692"
"+9836n" "NCSU_Analog_Parts_pcapacitor_ivpcell"
"+9835v" "C1693"
"+9835n" "NCSU_Analog_Parts_pcapacitor_ivpcell"
"+9834v" "C1694"
"+9834n" "NCSU_Analog_Parts_pcapacitor_ivpcell"
"+9833v" "C1695"
"+9833n" "NCSU_Analog_Parts_pcapacitor_ivpcell"
"+9832v" "C1696"
"+9832n" "NCSU_Analog_Parts_pcapacitor_ivpcell"
"+9831v" "C1697"
"+9831n" "NCSU_Analog_Parts_pcapacitor_ivpcell"
"+9830v" "C1698"
"+9830n" "NCSU_Analog_Parts_pcapacitor_ivpcell"
"+9829v" "C1699"
"+9829n" "NCSU_Analog_Parts_pcapacitor_ivpcell"
"+9828v" "C1700"
"+9828n" "NCSU_Analog_Parts_pcapacitor_ivpcell"
"+9827v" "C1701"
"+9827n" "NCSU_Analog_Parts_pcapacitor_ivpcell"
"+9826v" "C1702"
"+9826n" "NCSU_Analog_Parts_pcapacitor_ivpcell"
"+9825v" "C1703"
"+9825n" "NCSU_Analog_Parts_pcapacitor_ivpcell"
"+9824v" "C1704"
"+9824n" "NCSU_Analog_Parts_pcapacitor_ivpcell"
"+9823v" "C1705"
"+9823n" "NCSU_Analog_Parts_pcapacitor_ivpcell"
"+9822v" "C1706"
"+9822n" "NCSU_Analog_Parts_pcapacitor_ivpcell"
"+9821v" "C1707"
"+9821n" "NCSU_Analog_Parts_pcapacitor_ivpcell"
"+9819v" "C1708"
"+9819n" "NCSU_Analog_Parts_pcapacitor_ivpcell"
"+9817v" "C1709"
"+9817n" "NCSU_Analog_Parts_pcapacitor_ivpcell"
"+9816v" "C1710"
"+9816n" "NCSU_Analog_Parts_pcapacitor_ivpcell"
"+9815v" "C1711"
"+9815n" "NCSU_Analog_Parts_pcapacitor_ivpcell"
"+9806v" "C1712"
"+9806n" "NCSU_Analog_Parts_pcapacitor_ivpcell"
"+9803v" "C1713"
"+9803n" "NCSU_Analog_Parts_pcapacitor_ivpcell"
"+9801v" "C1714"
"+9801n" "NCSU_Analog_Parts_pcapacitor_ivpcell"
"+9792v" "C1715"
"+9792n" "NCSU_Analog_Parts_pcapacitor_ivpcell"
"+9790v" "C1716"
"+9790n" "NCSU_Analog_Parts_pcapacitor_ivpcell"
"+9753v" "C1717"
"+9753n" "NCSU_Analog_Parts_pcapacitor_ivpcell"
"+9751v" "C1718"
"+9751n" "NCSU_Analog_Parts_pcapacitor_ivpcell"
"+9750v" "C1719"
"+9750n" "NCSU_Analog_Parts_pcapacitor_ivpcell"
"+9749v" "C1720"
"+9749n" "NCSU_Analog_Parts_pcapacitor_ivpcell"
"+9729v" "C1721"
"+9729n" "NCSU_Analog_Parts_pcapacitor_ivpcell"
"+9697v" "C1722"
"+9697n" "NCSU_Analog_Parts_pcapacitor_ivpcell"
"+9641v" "C1723"
"+9641n" "NCSU_Analog_Parts_pcapacitor_ivpcell"
"+9637v" "C1724"
"+9637n" "NCSU_Analog_Parts_pcapacitor_ivpcell"
"+9612v" "C1725"
"+9612n" "NCSU_Analog_Parts_pcapacitor_ivpcell"
"+9396v" "C1726"
"+9396n" "NCSU_Analog_Parts_pcapacitor_ivpcell"
"+9281v" "C1727"
"+9281n" "NCSU_Analog_Parts_pcapacitor_ivpcell"
"+9280v" "C1728"
"+9280n" "NCSU_Analog_Parts_pcapacitor_ivpcell"
"+9224v" "C1729"
"+9224n" "NCSU_Analog_Parts_pcapacitor_ivpcell"
"+9223v" "C1730"
"+9223n" "NCSU_Analog_Parts_pcapacitor_ivpcell"
"+9195v" "C1731"
"+9195n" "NCSU_Analog_Parts_pcapacitor_ivpcell"
"+9185v" "C1732"
"+9185n" "NCSU_Analog_Parts_pcapacitor_ivpcell"
"+9175v" "C1733"
"+9175n" "NCSU_Analog_Parts_pcapacitor_ivpcell"
"+9174v" "C1734"
"+9174n" "NCSU_Analog_Parts_pcapacitor_ivpcell"
"+9173v" "C1735"
"+9173n" "NCSU_Analog_Parts_pcapacitor_ivpcell"
"+9172v" "C1736"
"+9172n" "NCSU_Analog_Parts_pcapacitor_ivpcell"
"+9168v" "C1737"
"+9168n" "NCSU_Analog_Parts_pcapacitor_ivpcell"
"+9167v" "C1738"
"+9167n" "NCSU_Analog_Parts_pcapacitor_ivpcell"
"+9166v" "C1739"
"+9166n" "NCSU_Analog_Parts_pcapacitor_ivpcell"
"+9165v" "C1740"
"+9165n" "NCSU_Analog_Parts_pcapacitor_ivpcell"
"+9164v" "C1741"
"+9164n" "NCSU_Analog_Parts_pcapacitor_ivpcell"
"+9163v" "C1742"
"+9163n" "NCSU_Analog_Parts_pcapacitor_ivpcell"
"+9161v" "C1743"
"+9161n" "NCSU_Analog_Parts_pcapacitor_ivpcell"
"+9160v" "C1744"
"+9160n" "NCSU_Analog_Parts_pcapacitor_ivpcell"
"+9159v" "C1745"
"+9159n" "NCSU_Analog_Parts_pcapacitor_ivpcell"
"+9158v" "C1746"
"+9158n" "NCSU_Analog_Parts_pcapacitor_ivpcell"
"+9157v" "C1747"
"+9157n" "NCSU_Analog_Parts_pcapacitor_ivpcell"
"+9156v" "C1748"
"+9156n" "NCSU_Analog_Parts_pcapacitor_ivpcell"
"+9155v" "C1749"
"+9155n" "NCSU_Analog_Parts_pcapacitor_ivpcell"
"+9154v" "C1750"
"+9154n" "NCSU_Analog_Parts_pcapacitor_ivpcell"
"+9153v" "C1751"
"+9153n" "NCSU_Analog_Parts_pcapacitor_ivpcell"
"+9152v" "C1752"
"+9152n" "NCSU_Analog_Parts_pcapacitor_ivpcell"
"+9151v" "C1753"
"+9151n" "NCSU_Analog_Parts_pcapacitor_ivpcell"
"+9150v" "C1754"
"+9150n" "NCSU_Analog_Parts_pcapacitor_ivpcell"
"+9149v" "C1755"
"+9149n" "NCSU_Analog_Parts_pcapacitor_ivpcell"
"+9148v" "C1756"
"+9148n" "NCSU_Analog_Parts_pcapacitor_ivpcell"
"+9147v" "C1757"
"+9147n" "NCSU_Analog_Parts_pcapacitor_ivpcell"
"+9144v" "C1758"
"+9144n" "NCSU_Analog_Parts_pcapacitor_ivpcell"
"+9143v" "C1759"
"+9143n" "NCSU_Analog_Parts_pcapacitor_ivpcell"
"+9142v" "C1760"
"+9142n" "NCSU_Analog_Parts_pcapacitor_ivpcell"
"+9141v" "C1761"
"+9141n" "NCSU_Analog_Parts_pcapacitor_ivpcell"
"+9140v" "C1762"
"+9140n" "NCSU_Analog_Parts_pcapacitor_ivpcell"
"+9139v" "C1763"
"+9139n" "NCSU_Analog_Parts_pcapacitor_ivpcell"
"+9138v" "C1764"
"+9138n" "NCSU_Analog_Parts_pcapacitor_ivpcell"
"+9127v" "C1765"
"+9127n" "NCSU_Analog_Parts_pcapacitor_ivpcell"
"+9123v" "C1766"
"+9123n" "NCSU_Analog_Parts_pcapacitor_ivpcell"
"+9120v" "C1767"
"+9120n" "NCSU_Analog_Parts_pcapacitor_ivpcell"
"+9117v" "C1768"
"+9117n" "NCSU_Analog_Parts_pcapacitor_ivpcell"
"+9116v" "C1769"
"+9116n" "NCSU_Analog_Parts_pcapacitor_ivpcell"
"+9115v" "C1770"
"+9115n" "NCSU_Analog_Parts_pcapacitor_ivpcell"
"+9099v" "C1771"
"+9099n" "NCSU_Analog_Parts_pcapacitor_ivpcell"
"+9068v" "C1772"
"+9068n" "NCSU_Analog_Parts_pcapacitor_ivpcell"
"+8975v" "C1773"
"+8975n" "NCSU_Analog_Parts_pcapacitor_ivpcell"
"+8962v" "C1774"
"+8962n" "NCSU_Analog_Parts_pcapacitor_ivpcell"
"+8957v" "C1775"
"+8957n" "NCSU_Analog_Parts_pcapacitor_ivpcell"
"+8949v" "C1776"
"+8949n" "NCSU_Analog_Parts_pcapacitor_ivpcell"
"+8904v" "C1777"
"+8904n" "NCSU_Analog_Parts_pcapacitor_ivpcell"
"+8865v" "C1778"
"+8865n" "NCSU_Analog_Parts_pcapacitor_ivpcell"
"+8864v" "C1779"
"+8864n" "NCSU_Analog_Parts_pcapacitor_ivpcell"
"+8821v" "C1780"
"+8821n" "NCSU_Analog_Parts_pcapacitor_ivpcell"
"+8580v" "C1781"
"+8580n" "NCSU_Analog_Parts_pcapacitor_ivpcell"
"+8343v" "C1782"
"+8343n" "NCSU_Analog_Parts_pcapacitor_ivpcell"
"+8243v" "C1783"
"+8243n" "NCSU_Analog_Parts_pcapacitor_ivpcell"
"+8242v" "C1784"
"+8242n" "NCSU_Analog_Parts_pcapacitor_ivpcell"
"+8144v" "C1785"
"+8144n" "NCSU_Analog_Parts_pcapacitor_ivpcell"
"+8143v" "C1786"
"+8143n" "NCSU_Analog_Parts_pcapacitor_ivpcell"
"+8105v" "C1787"
"+8105n" "NCSU_Analog_Parts_pcapacitor_ivpcell"
"+8092v" "C1788"
"+8092n" "NCSU_Analog_Parts_pcapacitor_ivpcell"
"+8091v" "C1789"
"+8091n" "NCSU_Analog_Parts_pcapacitor_ivpcell"
"+8090v" "C1790"
"+8090n" "NCSU_Analog_Parts_pcapacitor_ivpcell"
"+8077v" "C1791"
"+8077n" "NCSU_Analog_Parts_pcapacitor_ivpcell"
"+8076v" "C1792"
"+8076n" "NCSU_Analog_Parts_pcapacitor_ivpcell"
"+8035v" "C1793"
"+8035n" "NCSU_Analog_Parts_pcapacitor_ivpcell"
"+8015v" "C1794"
"+8015n" "NCSU_Analog_Parts_pcapacitor_ivpcell"
"+8014v" "C1795"
"+8014n" "NCSU_Analog_Parts_pcapacitor_ivpcell"
"+8013v" "C1796"
"+8013n" "NCSU_Analog_Parts_pcapacitor_ivpcell"
"+8012v" "C1797"
"+8012n" "NCSU_Analog_Parts_pcapacitor_ivpcell"
"+8011v" "C1798"
"+8011n" "NCSU_Analog_Parts_pcapacitor_ivpcell"
"+8010v" "C1799"
"+8010n" "NCSU_Analog_Parts_pcapacitor_ivpcell"
"+8009v" "C1800"
"+8009n" "NCSU_Analog_Parts_pcapacitor_ivpcell"
"+8008v" "C1801"
"+8008n" "NCSU_Analog_Parts_pcapacitor_ivpcell"
"+8007v" "C1802"
"+8007n" "NCSU_Analog_Parts_pcapacitor_ivpcell"
"+8006v" "C1803"
"+8006n" "NCSU_Analog_Parts_pcapacitor_ivpcell"
"+8005v" "C1804"
"+8005n" "NCSU_Analog_Parts_pcapacitor_ivpcell"
"+8004v" "C1805"
"+8004n" "NCSU_Analog_Parts_pcapacitor_ivpcell"
"+8003v" "C1806"
"+8003n" "NCSU_Analog_Parts_pcapacitor_ivpcell"
"+8002v" "C1807"
"+8002n" "NCSU_Analog_Parts_pcapacitor_ivpcell"
"+8001v" "C1808"
"+8001n" "NCSU_Analog_Parts_pcapacitor_ivpcell"
"+8000v" "C1809"
"+8000n" "NCSU_Analog_Parts_pcapacitor_ivpcell"
"+7999v" "C1810"
"+7999n" "NCSU_Analog_Parts_pcapacitor_ivpcell"
"+7998v" "C1811"
"+7998n" "NCSU_Analog_Parts_pcapacitor_ivpcell"
"+7997v" "C1812"
"+7997n" "NCSU_Analog_Parts_pcapacitor_ivpcell"
"+7996v" "C1813"
"+7996n" "NCSU_Analog_Parts_pcapacitor_ivpcell"
"+7995v" "C1814"
"+7995n" "NCSU_Analog_Parts_pcapacitor_ivpcell"
"+7988v" "C1815"
"+7988n" "NCSU_Analog_Parts_pcapacitor_ivpcell"
"+7980v" "C1816"
"+7980n" "NCSU_Analog_Parts_pcapacitor_ivpcell"
"+7979v" "C1817"
"+7979n" "NCSU_Analog_Parts_pcapacitor_ivpcell"
"+7978v" "C1818"
"+7978n" "NCSU_Analog_Parts_pcapacitor_ivpcell"
"+7977v" "C1819"
"+7977n" "NCSU_Analog_Parts_pcapacitor_ivpcell"
"+7976v" "C1820"
"+7976n" "NCSU_Analog_Parts_pcapacitor_ivpcell"
"+7975v" "C1821"
"+7975n" "NCSU_Analog_Parts_pcapacitor_ivpcell"
"+7974v" "C1822"
"+7974n" "NCSU_Analog_Parts_pcapacitor_ivpcell"
"+7972v" "C1823"
"+7972n" "NCSU_Analog_Parts_pcapacitor_ivpcell"
"+7971v" "C1824"
"+7971n" "NCSU_Analog_Parts_pcapacitor_ivpcell"
"+7968v" "C1825"
"+7968n" "NCSU_Analog_Parts_pcapacitor_ivpcell"
"+7960v" "C1826"
"+7960n" "NCSU_Analog_Parts_pcapacitor_ivpcell"
"+7959v" "C1827"
"+7959n" "NCSU_Analog_Parts_pcapacitor_ivpcell"
"+7958v" "C1828"
"+7958n" "NCSU_Analog_Parts_pcapacitor_ivpcell"
"+7951v" "C1829"
"+7951n" "NCSU_Analog_Parts_pcapacitor_ivpcell"
"+7942v" "C1830"
"+7942n" "NCSU_Analog_Parts_pcapacitor_ivpcell"
"+7941v" "C1831"
"+7941n" "NCSU_Analog_Parts_pcapacitor_ivpcell"
"+7940v" "C1832"
"+7940n" "NCSU_Analog_Parts_pcapacitor_ivpcell"
"+7939v" "C1833"
"+7939n" "NCSU_Analog_Parts_pcapacitor_ivpcell"
"+7938v" "C1834"
"+7938n" "NCSU_Analog_Parts_pcapacitor_ivpcell"
"+7937v" "C1835"
"+7937n" "NCSU_Analog_Parts_pcapacitor_ivpcell"
"+7936v" "C1836"
"+7936n" "NCSU_Analog_Parts_pcapacitor_ivpcell"
"+7935v" "C1837"
"+7935n" "NCSU_Analog_Parts_pcapacitor_ivpcell"
"+7934v" "C1838"
"+7934n" "NCSU_Analog_Parts_pcapacitor_ivpcell"
"+7933v" "C1839"
"+7933n" "NCSU_Analog_Parts_pcapacitor_ivpcell"
"+7925v" "C1840"
"+7925n" "NCSU_Analog_Parts_pcapacitor_ivpcell"
"+7917v" "C1841"
"+7917n" "NCSU_Analog_Parts_pcapacitor_ivpcell"
"+7916v" "C1842"
"+7916n" "NCSU_Analog_Parts_pcapacitor_ivpcell"
"+7915v" "C1843"
"+7915n" "NCSU_Analog_Parts_pcapacitor_ivpcell"
"+7914v" "C1844"
"+7914n" "NCSU_Analog_Parts_pcapacitor_ivpcell"
"+7913v" "C1845"
"+7913n" "NCSU_Analog_Parts_pcapacitor_ivpcell"
"+7912v" "C1846"
"+7912n" "NCSU_Analog_Parts_pcapacitor_ivpcell"
"+7911v" "C1847"
"+7911n" "NCSU_Analog_Parts_pcapacitor_ivpcell"
"+7892v" "C1848"
"+7892n" "NCSU_Analog_Parts_pcapacitor_ivpcell"
"+7891v" "C1849"
"+7891n" "NCSU_Analog_Parts_pcapacitor_ivpcell"
"+7890v" "C1850"
"+7890n" "NCSU_Analog_Parts_pcapacitor_ivpcell"
"+7881v" "C1851"
"+7881n" "NCSU_Analog_Parts_pcapacitor_ivpcell"
"+7873v" "C1852"
"+7873n" "NCSU_Analog_Parts_pcapacitor_ivpcell"
"+7872v" "C1853"
"+7872n" "NCSU_Analog_Parts_pcapacitor_ivpcell"
"+7871v" "C1854"
"+7871n" "NCSU_Analog_Parts_pcapacitor_ivpcell"
"+7870v" "C1855"
"+7870n" "NCSU_Analog_Parts_pcapacitor_ivpcell"
"+7869v" "C1856"
"+7869n" "NCSU_Analog_Parts_pcapacitor_ivpcell"
"+7868v" "C1857"
"+7868n" "NCSU_Analog_Parts_pcapacitor_ivpcell"
"+7867v" "C1858"
"+7867n" "NCSU_Analog_Parts_pcapacitor_ivpcell"
"+7866v" "C1859"
"+7866n" "NCSU_Analog_Parts_pcapacitor_ivpcell"
"+7865v" "C1860"
"+7865n" "NCSU_Analog_Parts_pcapacitor_ivpcell"
"+7857v" "C1861"
"+7857n" "NCSU_Analog_Parts_pcapacitor_ivpcell"
"+7856v" "C1862"
"+7856n" "NCSU_Analog_Parts_pcapacitor_ivpcell"
"+7849v" "C1863"
"+7849n" "NCSU_Analog_Parts_pcapacitor_ivpcell"
"+7848v" "C1864"
"+7848n" "NCSU_Analog_Parts_pcapacitor_ivpcell"
"+7847v" "C1865"
"+7847n" "NCSU_Analog_Parts_pcapacitor_ivpcell"
"+7846v" "C1866"
"+7846n" "NCSU_Analog_Parts_pcapacitor_ivpcell"
"+7845v" "C1867"
"+7845n" "NCSU_Analog_Parts_pcapacitor_ivpcell"
"+7844v" "C1868"
"+7844n" "NCSU_Analog_Parts_pcapacitor_ivpcell"
"+7842v" "C1869"
"+7842n" "NCSU_Analog_Parts_pcapacitor_ivpcell"
"+7841v" "C1870"
"+7841n" "NCSU_Analog_Parts_pcapacitor_ivpcell"
"+7840v" "C1871"
"+7840n" "NCSU_Analog_Parts_pcapacitor_ivpcell"
"+7839v" "C1872"
"+7839n" "NCSU_Analog_Parts_pcapacitor_ivpcell"
"+7838v" "C1873"
"+7838n" "NCSU_Analog_Parts_pcapacitor_ivpcell"
"+7837v" "C1874"
"+7837n" "NCSU_Analog_Parts_pcapacitor_ivpcell"
"+7836v" "C1875"
"+7836n" "NCSU_Analog_Parts_pcapacitor_ivpcell"
"+7835v" "C1876"
"+7835n" "NCSU_Analog_Parts_pcapacitor_ivpcell"
"+7834v" "C1877"
"+7834n" "NCSU_Analog_Parts_pcapacitor_ivpcell"
"+7833v" "C1878"
"+7833n" "NCSU_Analog_Parts_pcapacitor_ivpcell"
"+7832v" "C1879"
"+7832n" "NCSU_Analog_Parts_pcapacitor_ivpcell"
"+7831v" "C1880"
"+7831n" "NCSU_Analog_Parts_pcapacitor_ivpcell"
"+7830v" "C1881"
"+7830n" "NCSU_Analog_Parts_pcapacitor_ivpcell"
"+7829v" "C1882"
"+7829n" "NCSU_Analog_Parts_pcapacitor_ivpcell"
"+7828v" "C1883"
"+7828n" "NCSU_Analog_Parts_pcapacitor_ivpcell"
"+7827v" "C1884"
"+7827n" "NCSU_Analog_Parts_pcapacitor_ivpcell"
"+7826v" "C1885"
"+7826n" "NCSU_Analog_Parts_pcapacitor_ivpcell"
"+7824v" "C1886"
"+7824n" "NCSU_Analog_Parts_pcapacitor_ivpcell"
"+7823v" "C1887"
"+7823n" "NCSU_Analog_Parts_pcapacitor_ivpcell"
"+7822v" "C1888"
"+7822n" "NCSU_Analog_Parts_pcapacitor_ivpcell"
"+7821v" "C1889"
"+7821n" "NCSU_Analog_Parts_pcapacitor_ivpcell"
"+7820v" "C1890"
"+7820n" "NCSU_Analog_Parts_pcapacitor_ivpcell"
"+7819v" "C1891"
"+7819n" "NCSU_Analog_Parts_pcapacitor_ivpcell"
"+7818v" "C1892"
"+7818n" "NCSU_Analog_Parts_pcapacitor_ivpcell"
"+7817v" "C1893"
"+7817n" "NCSU_Analog_Parts_pcapacitor_ivpcell"
"+7816v" "C1894"
"+7816n" "NCSU_Analog_Parts_pcapacitor_ivpcell"
"+7815v" "C1895"
"+7815n" "NCSU_Analog_Parts_pcapacitor_ivpcell"
"+7814v" "C1896"
"+7814n" "NCSU_Analog_Parts_pcapacitor_ivpcell"
"+7813v" "C1897"
"+7813n" "NCSU_Analog_Parts_pcapacitor_ivpcell"
"+7812v" "C1898"
"+7812n" "NCSU_Analog_Parts_pcapacitor_ivpcell"
"+7811v" "C1899"
"+7811n" "NCSU_Analog_Parts_pcapacitor_ivpcell"
"+7810v" "C1900"
"+7810n" "NCSU_Analog_Parts_pcapacitor_ivpcell"
"+7809v" "C1901"
"+7809n" "NCSU_Analog_Parts_pcapacitor_ivpcell"
"+7808v" "C1902"
"+7808n" "NCSU_Analog_Parts_pcapacitor_ivpcell"
"+7807v" "C1903"
"+7807n" "NCSU_Analog_Parts_pcapacitor_ivpcell"
"+7806v" "C1904"
"+7806n" "NCSU_Analog_Parts_pcapacitor_ivpcell"
"+7805v" "C1905"
"+7805n" "NCSU_Analog_Parts_pcapacitor_ivpcell"
"+7804v" "C1906"
"+7804n" "NCSU_Analog_Parts_pcapacitor_ivpcell"
"+7803v" "C1907"
"+7803n" "NCSU_Analog_Parts_pcapacitor_ivpcell"
"+7802v" "C1908"
"+7802n" "NCSU_Analog_Parts_pcapacitor_ivpcell"
"+7801v" "C1909"
"+7801n" "NCSU_Analog_Parts_pcapacitor_ivpcell"
"+7800v" "C1910"
"+7800n" "NCSU_Analog_Parts_pcapacitor_ivpcell"
"+7798v" "C1911"
"+7798n" "NCSU_Analog_Parts_pcapacitor_ivpcell"
"+7797v" "C1912"
"+7797n" "NCSU_Analog_Parts_pcapacitor_ivpcell"
"+7790v" "C1913"
"+7790n" "NCSU_Analog_Parts_pcapacitor_ivpcell"
"+7789v" "C1914"
"+7789n" "NCSU_Analog_Parts_pcapacitor_ivpcell"
"+7788v" "C1915"
"+7788n" "NCSU_Analog_Parts_pcapacitor_ivpcell"
"+7787v" "C1916"
"+7787n" "NCSU_Analog_Parts_pcapacitor_ivpcell"
"+7786v" "C1917"
"+7786n" "NCSU_Analog_Parts_pcapacitor_ivpcell"
"+7785v" "C1918"
"+7785n" "NCSU_Analog_Parts_pcapacitor_ivpcell"
"+7784v" "C1919"
"+7784n" "NCSU_Analog_Parts_pcapacitor_ivpcell"
"+7783v" "C1920"
"+7783n" "NCSU_Analog_Parts_pcapacitor_ivpcell"
"+7782v" "C1921"
"+7782n" "NCSU_Analog_Parts_pcapacitor_ivpcell"
"+7781v" "C1922"
"+7781n" "NCSU_Analog_Parts_pcapacitor_ivpcell"
"+7780v" "C1923"
"+7780n" "NCSU_Analog_Parts_pcapacitor_ivpcell"
"+7779v" "C1924"
"+7779n" "NCSU_Analog_Parts_pcapacitor_ivpcell"
"+7778v" "C1925"
"+7778n" "NCSU_Analog_Parts_pcapacitor_ivpcell"
"+7777v" "C1926"
"+7777n" "NCSU_Analog_Parts_pcapacitor_ivpcell"
"+7776v" "C1927"
"+7776n" "NCSU_Analog_Parts_pcapacitor_ivpcell"
"+7775v" "C1928"
"+7775n" "NCSU_Analog_Parts_pcapacitor_ivpcell"
"+7773v" "C1929"
"+7773n" "NCSU_Analog_Parts_pcapacitor_ivpcell"
"+7766v" "C1930"
"+7766n" "NCSU_Analog_Parts_pcapacitor_ivpcell"
"+7765v" "C1931"
"+7765n" "NCSU_Analog_Parts_pcapacitor_ivpcell"
"+7764v" "C1932"
"+7764n" "NCSU_Analog_Parts_pcapacitor_ivpcell"
"+7762v" "C1933"
"+7762n" "NCSU_Analog_Parts_pcapacitor_ivpcell"
"+7761v" "C1934"
"+7761n" "NCSU_Analog_Parts_pcapacitor_ivpcell"
"+7760v" "C1935"
"+7760n" "NCSU_Analog_Parts_pcapacitor_ivpcell"
"+7759v" "C1936"
"+7759n" "NCSU_Analog_Parts_pcapacitor_ivpcell"
"+7758v" "C1937"
"+7758n" "NCSU_Analog_Parts_pcapacitor_ivpcell"
"+7751v" "C1938"
"+7751n" "NCSU_Analog_Parts_pcapacitor_ivpcell"
"+7750v" "C1939"
"+7750n" "NCSU_Analog_Parts_pcapacitor_ivpcell"
"+7749v" "C1940"
"+7749n" "NCSU_Analog_Parts_pcapacitor_ivpcell"
"+7748v" "C1941"
"+7748n" "NCSU_Analog_Parts_pcapacitor_ivpcell"
"+7747v" "C1942"
"+7747n" "NCSU_Analog_Parts_pcapacitor_ivpcell"
"+7746v" "C1943"
"+7746n" "NCSU_Analog_Parts_pcapacitor_ivpcell"
"+7745v" "C1944"
"+7745n" "NCSU_Analog_Parts_pcapacitor_ivpcell"
"+7744v" "C1945"
"+7744n" "NCSU_Analog_Parts_pcapacitor_ivpcell"
"+7743v" "C1946"
"+7743n" "NCSU_Analog_Parts_pcapacitor_ivpcell"
"+7742v" "C1947"
"+7742n" "NCSU_Analog_Parts_pcapacitor_ivpcell"
"+7741v" "C1948"
"+7741n" "NCSU_Analog_Parts_pcapacitor_ivpcell"
"+7740v" "C1949"
"+7740n" "NCSU_Analog_Parts_pcapacitor_ivpcell"
"+7732v" "C1950"
"+7732n" "NCSU_Analog_Parts_pcapacitor_ivpcell"
"+7731v" "C1951"
"+7731n" "NCSU_Analog_Parts_pcapacitor_ivpcell"
"+7730v" "C1952"
"+7730n" "NCSU_Analog_Parts_pcapacitor_ivpcell"
"+7729v" "C1953"
"+7729n" "NCSU_Analog_Parts_pcapacitor_ivpcell"
"+7726v" "C1954"
"+7726n" "NCSU_Analog_Parts_pcapacitor_ivpcell"
"+7725v" "C1955"
"+7725n" "NCSU_Analog_Parts_pcapacitor_ivpcell"
"+7724v" "C1956"
"+7724n" "NCSU_Analog_Parts_pcapacitor_ivpcell"
"+7717v" "C1957"