HEADER
"PSFversion" "1.00"
"A7B3v" "A7B3"
"B_0v" "B_0"
"A7B4v" "A7B4"
"B_1v" "B_1"
"B_2v" "B_2"
"B_3v" "B_3"
"B_4v" "B_4"
"B_5v" "B_5"
"B_6v" "B_6"
"B_7v" "B_7"
"oli_13v" "oli_13"
"oli_15v" "oli_15"
"oli_16v" "oli_16"
"clk_env" "clk_en"
"clkv" "clk"
"S_0v" "S_0"
"S_1v" "S_1"
"VDv" "VD"
"S_2v" "S_2"
"S_3v" "S_3"
"S_4v" "S_4"
"S_5v" "S_5"
"S_6v" "S_6"
"S_7v" "S_7"
"S_8v" "S_8"
"S_9v" "S_9"
"A_0v" "A_0"
"A6B4v" "A6B4"
"A_1v" "A_1"
"A_2v" "A_2"
"A_3v" "A_3"
"A_4v" "A_4"
"A_5v" "A_5"
"A_6v" "A_6"
"A_7v" "A_7"
"A0ininv" "A0inin"
"GDv" "GD"
"S_10v" "S_10"
"S_11v" "S_11"
"S_12v" "S_12"
"S_13v" "S_13"
"S_14v" "S_14"
"S_15v" "S_15"
"S_16v" "S_16"
"45v" "1"
"46v" "2"
"47v" "3"
"48v" "4"
"49v" "5"
"50v" "6"
"51v" "7"
"52v" "8"
"53v" "9"
"54v" "10"
"55v" "11"
"56v" "12"
"57v" "13"
"58v" "14"
"59v" "15"
"60v" "16"
"61v" "17"
"62v" "18"
"63v" "19"
"64v" "20"
"65v" "21"
"66v" "22"
"67v" "23"
"68v" "24"
"69v" "25"
"70v" "26"
"71v" "27"
"72v" "28"
"73v" "29"
"74v" "30"
"75v" "31"
"76v" "32"
"77v" "33"
"78v" "34"
"79v" "35"
"80v" "36"
"81v" "37"
"82v" "38"
"83v" "39"
"84v" "40"
"85v" "41"
"86v" "42"
"87v" "43"
"88v" "44"
"89v" "89"
"90v" "90"
"91v" "91"
"92v" "92"
"93v" "93"
"94v" "94"
"95v" "95"
"96v" "96"
"97v" "97"
"98v" "98"
"99v" "99"
"100v" "100"
"101v" "101"
"102v" "102"
"103v" "103"
"104v" "104"
"105v" "105"
"106v" "106"
"107v" "107"
"108v" "108"
"109v" "109"
"110v" "110"
"111v" "111"
"112v" "112"
"113v" "113"
"114v" "114"
"115v" "115"
"116v" "116"
"117v" "117"
"118v" "118"
"119v" "119"
"120v" "120"
"121v" "121"
"122v" "122"
"123v" "123"
"124v" "124"
"125v" "125"
"126v" "126"
"127v" "127"
"128v" "128"
"129v" "129"
"130v" "130"
"131v" "131"
"132v" "132"
"133v" "133"
"134v" "134"
"135v" "135"
"136v" "136"
"137v" "137"
"138v" "138"
"139v" "139"
"140v" "140"
"141v" "141"
"142v" "142"
"143v" "143"
"144v" "144"
"145v" "145"
"146v" "146"
"147v" "147"
"148v" "148"
"149v" "149"
"150v" "150"
"151v" "151"
"152v" "152"
"153v" "153"
"154v" "154"
"155v" "155"
"156v" "156"
"157v" "157"
"158v" "158"
"159v" "159"
"160v" "160"
"161v" "161"
"162v" "162"
"163v" "163"
"164v" "164"
"165v" "165"
"166v" "166"
"167v" "167"
"168v" "168"
"169v" "169"
"170v" "170"
"171v" "171"
"172v" "172"
"173v" "173"
"174v" "174"
"175v" "175"
"176v" "176"
"177v" "177"
"178v" "178"
"179v" "179"
"180v" "180"
"181v" "181"
"182v" "182"
"183v" "183"
"184v" "184"
"185v" "185"
"186v" "186"
"187v" "187"
"188v" "188"
"189v" "189"
"190v" "190"
"191v" "191"
"192v" "192"
"193v" "193"
"194v" "194"
"195v" "195"
"196v" "196"
"197v" "197"
"198v" "198"
"199v" "199"
"200v" "200"
"201v" "201"
"202v" "202"
"203v" "203"
"204v" "204"
"205v" "205"
"206v" "206"
"207v" "207"
"208v" "208"
"209v" "209"
"210v" "210"
"211v" "211"
"212v" "212"
"213v" "213"
"214v" "214"
"215v" "215"
"216v" "216"
"217v" "217"
"218v" "218"
"219v" "219"
"220v" "220"
"221v" "221"
"222v" "222"
"223v" "223"
"224v" "224"
"225v" "225"
"226v" "226"
"227v" "227"
"228v" "228"
"229v" "229"
"230v" "230"
"231v" "231"
"232v" "232"
"233v" "233"
"234v" "234"
"235v" "235"
"236v" "236"
"237v" "237"
"238v" "238"
"239v" "239"
"240v" "240"
"241v" "241"
"242v" "242"
"243v" "243"
"244v" "244"
"245v" "245"
"246v" "246"
"247v" "247"
"248v" "248"
"249v" "249"
"250v" "250"
"251v" "251"
"252v" "252"
"253v" "253"
"254v" "254"
"255v" "255"
"256v" "256"
"257v" "257"
"258v" "258"
"259v" "259"
"260v" "260"
"261v" "261"
"262v" "262"
"263v" "263"
"264v" "264"
"265v" "265"
"266v" "266"
"267v" "267"
"268v" "268"
"269v" "269"
"270v" "270"
"271v" "271"
"272v" "272"
"273v" "273"
"274v" "274"
"275v" "275"
"276v" "276"
"277v" "277"
"278v" "278"
"279v" "279"
"280v" "280"
"281v" "281"
"282v" "282"
"283v" "283"
"284v" "284"
"285v" "285"
"286v" "286"
"287v" "287"
"288v" "288"
"289v" "289"
"290v" "290"
"291v" "291"
"292v" "292"
"293v" "293"
"294v" "294"
"295v" "295"
"296v" "296"
"297v" "297"
"298v" "298"
"299v" "299"
"300v" "300"
"301v" "301"
"302v" "302"
"303v" "303"
"304v" "304"
"305v" "305"
"306v" "306"
"307v" "307"
"308v" "308"
"309v" "309"
"310v" "310"
"311v" "311"
"312v" "312"
"313v" "313"
"314v" "314"
"315v" "315"
"316v" "316"
"317v" "317"
"318v" "318"
"319v" "319"
"320v" "320"
"321v" "321"
"322v" "322"
"323v" "323"
"324v" "324"
"325v" "325"
"326v" "326"
"327v" "327"
"328v" "328"
"329v" "329"
"330v" "330"
"331v" "331"
"332v" "332"
"333v" "333"
"334v" "334"
"335v" "335"
"336v" "336"
"337v" "337"
"338v" "338"
"339v" "339"
"340v" "340"
"341v" "341"
"342v" "342"
"343v" "343"
"344v" "344"
"345v" "345"
"346v" "346"
"347v" "347"
"348v" "348"
"349v" "349"
"350v" "350"
"351v" "351"
"352v" "352"
"353v" "353"
"354v" "354"
"355v" "355"
"356v" "356"
"357v" "357"
"358v" "358"
"359v" "359"
"360v" "360"
"361v" "361"
"362v" "362"
"363v" "363"
"364v" "364"
"365v" "365"
"366v" "366"
"367v" "367"
"368v" "368"
"369v" "369"
"370v" "370"
"371v" "371"
"372v" "372"
"373v" "373"
"374v" "374"
"375v" "375"
"376v" "376"
"377v" "377"
"378v" "378"
"379v" "379"
"380v" "380"
"381v" "381"
"382v" "382"
"383v" "383"
"384v" "384"
"385v" "385"
"386v" "386"
"387v" "387"
"388v" "388"
"389v" "389"
"390v" "390"
"391v" "391"
"392v" "392"
"393v" "393"
"394v" "394"
"395v" "395"
"396v" "396"
"397v" "397"
"398v" "398"
"399v" "399"
"400v" "400"
"401v" "401"
"402v" "402"
"403v" "403"
"404v" "404"
"405v" "405"
"406v" "406"
"407v" "407"
"408v" "408"
"409v" "409"
"410v" "410"
"411v" "411"
"412v" "412"
"413v" "413"
"414v" "414"
"415v" "415"
"416v" "416"
"417v" "417"
"418v" "418"
"419v" "419"
"420v" "420"
"421v" "421"
"422v" "422"
"423v" "423"
"424v" "424"
"425v" "425"
"426v" "426"
"427v" "427"
"428v" "428"
"429v" "429"
"430v" "430"
"431v" "431"
"432v" "432"
"433v" "433"
"434v" "434"
"435v" "435"
"436v" "436"
"437v" "437"
"438v" "438"
"439v" "439"
"440v" "440"
"441v" "441"
"442v" "442"
"443v" "443"
"444v" "444"
"445v" "445"
"446v" "446"
"447v" "447"
"448v" "448"
"449v" "449"
"450v" "450"
"451v" "451"
"452v" "452"
"453v" "453"
"454v" "454"
"455v" "455"
"456v" "456"
"457v" "457"
"458v" "458"
"459v" "459"
"460v" "460"
"461v" "461"
"462v" "462"
"463v" "463"
"464v" "464"
"465v" "465"
"466v" "466"
"467v" "467"
"468v" "468"
"469v" "469"
"470v" "470"
"471v" "471"
"472v" "472"
"473v" "473"
"474v" "474"
"475v" "475"
"476v" "476"
"477v" "477"
"478v" "478"
"479v" "479"
"480v" "480"
"481v" "481"
"482v" "482"
"483v" "483"
"484v" "484"
"485v" "485"
"486v" "486"
"487v" "487"
"488v" "488"
"489v" "489"
"490v" "490"
"491v" "491"
"492v" "492"
"493v" "493"
"494v" "494"
"495v" "495"
"496v" "496"
"497v" "497"
"498v" "498"
"499v" "499"
"500v" "500"
"501v" "501"
"502v" "502"
"503v" "503"
"504v" "504"
"505v" "505"
"506v" "506"
"507v" "507"
"508v" "508"
"509v" "509"
"510v" "510"
"511v" "511"
"512v" "512"
"513v" "513"
"514v" "514"
"515v" "515"
"516v" "516"
"517v" "517"
"518v" "518"
"519v" "519"
"520v" "520"
"521v" "521"
"522v" "522"
"523v" "523"
"524v" "524"
"525v" "525"
"526v" "526"
"527v" "527"
"528v" "528"
"529v" "529"
"530v" "530"
"531v" "531"
"532v" "532"
"533v" "533"
"534v" "534"
"535v" "535"
"536v" "536"
"537v" "537"
"538v" "538"
"539v" "539"
"540v" "540"
"541v" "541"
"542v" "542"
"543v" "543"
"544v" "544"
"545v" "545"
"546v" "546"
"547v" "547"
"548v" "548"
"549v" "549"
"550v" "550"
"551v" "551"
"552v" "552"
"553v" "553"
"554v" "554"
"555v" "555"
"556v" "556"
"557v" "557"
"558v" "558"
"559v" "559"
"560v" "560"
"561v" "561"
"562v" "562"
"563v" "563"
"564v" "564"
"565v" "565"
"566v" "566"
"567v" "567"
"568v" "568"
"569v" "569"
"570v" "570"
"571v" "571"
"572v" "572"
"573v" "573"
"574v" "574"
"575v" "575"
"576v" "576"
"577v" "577"
"578v" "578"
"579v" "579"
"580v" "580"
"581v" "581"
"582v" "582"
"583v" "583"
"584v" "584"
"585v" "585"
"586v" "586"
"587v" "587"
"588v" "588"
"589v" "589"
"590v" "590"
"591v" "591"
"592v" "592"
"593v" "593"
"594v" "594"
"595v" "595"
"596v" "596"
"597v" "597"
"598v" "598"
"599v" "599"
"600v" "600"
"601v" "601"
"602v" "602"
"603v" "603"
"604v" "604"
"605v" "605"
"606v" "606"
"607v" "607"
"608v" "608"
"609v" "609"
"610v" "610"
"611v" "611"
"612v" "612"
"613v" "613"
"614v" "614"
"615v" "615"
"616v" "616"
"617v" "617"
"618v" "618"
"619v" "619"
"620v" "620"
"621v" "621"
"622v" "622"
"623v" "623"
"624v" "624"
"625v" "625"
"626v" "626"
"627v" "627"
"628v" "628"
"629v" "629"
"630v" "630"
"631v" "631"
"632v" "632"
"633v" "633"
"634v" "634"
"635v" "635"
"636v" "636"
"637v" "637"
"638v" "638"
"639v" "639"
"640v" "640"
"641v" "641"
"642v" "642"
"643v" "643"
"644v" "644"
"645v" "645"
"646v" "646"
"647v" "647"
"648v" "648"
"649v" "649"
"650v" "650"
"651v" "651"
"652v" "652"
"653v" "653"
"654v" "654"
"655v" "655"
"656v" "656"
"657v" "657"
"658v" "658"
"659v" "659"
"660v" "660"
"661v" "661"
"662v" "662"
"663v" "663"
"664v" "664"
"665v" "665"
"666v" "666"
"667v" "667"
"668v" "668"
"669v" "669"
"670v" "670"
"671v" "671"
"672v" "672"
"673v" "673"
"674v" "674"
"675v" "675"
"676v" "676"
"677v" "677"
"678v" "678"
"679v" "679"
"680v" "680"
"681v" "681"
"682v" "682"
"683v" "683"
"684v" "684"
"685v" "685"
"686v" "686"
"687v" "687"
"688v" "688"
"689v" "689"
"690v" "690"
"691v" "691"
"692v" "692"
"693v" "693"
"694v" "694"
"695v" "695"
"696v" "696"
"697v" "697"
"698v" "698"
"699v" "699"
"700v" "700"
"701v" "701"
"702v" "702"
"703v" "703"
"704v" "704"
"705v" "705"
"706v" "706"
"707v" "707"
"708v" "708"
"709v" "709"
"710v" "710"
"711v" "711"
"712v" "712"
"713v" "713"
"714v" "714"
"715v" "715"
"716v" "716"
"717v" "717"
"718v" "718"
"719v" "719"
"720v" "720"
"721v" "721"
"722v" "722"
"723v" "723"
"724v" "724"
"725v" "725"
"726v" "726"
"727v" "727"
"728v" "728"
"729v" "729"
"730v" "730"
"731v" "731"
"732v" "732"
"733v" "733"
"734v" "734"
"735v" "735"
"736v" "736"
"737v" "737"
"738v" "738"
"739v" "739"
"740v" "740"
"741v" "741"
"742v" "742"
"743v" "743"
"744v" "744"
"745v" "745"
"746v" "746"
"747v" "747"
"748v" "748"
"749v" "749"
"750v" "750"
"751v" "751"
"752v" "752"
"753v" "753"
"754v" "754"
"755v" "755"
"756v" "756"
"757v" "757"
"758v" "758"
"759v" "759"
"760v" "760"
"761v" "761"
"762v" "762"
"763v" "763"
"764v" "764"
"765v" "765"
"766v" "766"
"767v" "767"
"768v" "768"
"769v" "769"
"770v" "770"
"771v" "771"
"772v" "772"
"773v" "773"
"774v" "774"
"775v" "775"
"776v" "776"
"777v" "777"
"778v" "778"
"779v" "779"
"780v" "780"
"781v" "781"
"782v" "782"
"783v" "783"
"784v" "784"
"785v" "785"
"786v" "786"
"787v" "787"
"788v" "788"
"789v" "789"
"790v" "790"
"791v" "791"
"792v" "792"
"793v" "793"
"794v" "794"
"795v" "795"
"796v" "796"
"797v" "797"
"798v" "798"
"799v" "799"
"800v" "800"
"801v" "801"
"802v" "802"
"803v" "803"
"804v" "804"
"805v" "805"
"806v" "806"
"807v" "807"
"808v" "808"
"809v" "809"
"810v" "810"
"811v" "811"
"812v" "812"
"813v" "813"
"814v" "814"
"815v" "815"
"816v" "816"
"817v" "817"
"818v" "818"
"819v" "819"
"820v" "820"
"821v" "821"
"822v" "822"
"823v" "823"
"824v" "824"
"825v" "825"
"826v" "826"
"827v" "827"
"828v" "828"
"829v" "829"
"830v" "830"
"831v" "831"
"832v" "832"
"833v" "833"
"834v" "834"
"835v" "835"
"836v" "836"
"837v" "837"
"838v" "838"
"839v" "839"
"840v" "840"
"841v" "841"
"842v" "842"
"843v" "843"
"844v" "844"
"845v" "845"
"846v" "846"
"847v" "847"
"848v" "848"
"849v" "849"
"850v" "850"
"851v" "851"
"852v" "852"
"853v" "853"
"854v" "854"
"855v" "855"
"856v" "856"
"857v" "857"
"858v" "858"
"859v" "859"
"860v" "860"
"861v" "861"
"862v" "862"
"863v" "863"
"864v" "864"
"865v" "865"
"866v" "866"
"867v" "867"
"868v" "868"
"869v" "869"
"870v" "870"
"871v" "871"
"872v" "872"
"873v" "873"
"874v" "874"
"875v" "875"
"876v" "876"
"877v" "877"
"878v" "878"
"879v" "879"
"880v" "880"
"881v" "881"
"882v" "882"
"883v" "883"
"884v" "884"
"885v" "885"
"886v" "886"
"887v" "887"
"888v" "888"
"889v" "889"
"890v" "890"
"891v" "891"
"892v" "892"
"893v" "893"
"894v" "894"
"895v" "895"
"896v" "896"
"897v" "897"
"898v" "898"
"899v" "899"
"900v" "900"
"901v" "901"
"902v" "902"
"903v" "903"
"904v" "904"
"905v" "905"
"906v" "906"
"907v" "907"
"908v" "908"
"909v" "909"
"910v" "910"
"911v" "911"
"912v" "912"
"913v" "913"
"914v" "914"
"915v" "915"
"916v" "916"
"917v" "917"
"918v" "918"
"919v" "919"
"920v" "920"
"921v" "921"
"922v" "922"
"923v" "923"
"924v" "924"
"925v" "925"
"926v" "926"
"927v" "927"
"928v" "928"
"929v" "929"
"930v" "930"
"931v" "931"
"932v" "932"
"933v" "933"
"934v" "934"
"935v" "935"
"936v" "936"
"937v" "937"
"938v" "938"
"939v" "939"
"940v" "940"
"941v" "941"
"942v" "942"
"943v" "943"
"944v" "944"
"945v" "945"
"946v" "946"
"947v" "947"
"948v" "948"
"949v" "949"
"950v" "950"
"951v" "951"
"952v" "952"
"953v" "953"
"954v" "954"
"955v" "955"
"956v" "956"
"957v" "957"
"958v" "958"
"959v" "959"
"960v" "960"
"961v" "961"
"962v" "962"
"963v" "963"
"964v" "964"
"965v" "965"
"966v" "966"
"967v" "967"
"968v" "968"
"969v" "969"
"970v" "970"
"971v" "971"
"972v" "972"
"973v" "973"
"974v" "974"
"975v" "975"
"976v" "976"
"977v" "977"
"978v" "978"
"979v" "979"
"980v" "980"
"981v" "981"
"982v" "982"
"983v" "983"
"984v" "984"
"985v" "985"
"986v" "986"
"987v" "987"
"988v" "988"
"989v" "989"
"990v" "990"
"991v" "991"
"992v" "992"
"993v" "993"
"994v" "994"
"995v" "995"
"996v" "996"
"997v" "997"
"998v" "998"
"999v" "999"
"1000v" "1000"
"1001v" "1001"
"1002v" "1002"
"1003v" "1003"
"1004v" "1004"
"1005v" "1005"
"1006v" "1006"
"1007v" "1007"
"1008v" "1008"
"1009v" "1009"
"1010v" "1010"
"1011v" "1011"
"1012v" "1012"
"1013v" "1013"
"1014v" "1014"
"1015v" "1015"
"1016v" "1016"
"1017v" "1017"
"1018v" "1018"
"1019v" "1019"
"1020v" "1020"
"1021v" "1021"
"1022v" "1022"
"1023v" "1023"
"1024v" "1024"
"1025v" "1025"
"1026v" "1026"
"1027v" "1027"
"1028v" "1028"
"1029v" "1029"
"1030v" "1030"
"1031v" "1031"
"1032v" "1032"
"1033v" "1033"
"1034v" "1034"
"1035v" "1035"
"1036v" "1036"
"1037v" "1037"
"1038v" "1038"
"1039v" "1039"
"1040v" "1040"
"1041v" "1041"
"1042v" "1042"
"1043v" "1043"
"1044v" "1044"
"1045v" "1045"
"1046v" "1046"
"1047v" "1047"
"1048v" "1048"
"1049v" "1049"
"1050v" "1050"
"1051v" "1051"
"1052v" "1052"
"1053v" "1053"
"1054v" "1054"
"1055v" "1055"
"1056v" "1056"
"1057v" "1057"
"1058v" "1058"
"1059v" "1059"
"1060v" "1060"
"1061v" "1061"
"1062v" "1062"
"1063v" "1063"
"1064v" "1064"
"1065v" "1065"
"1066v" "1066"
"1067v" "1067"
"1068v" "1068"
"1069v" "1069"
"1070v" "1070"
"1071v" "1071"
"1072v" "1072"
"1073v" "1073"
"1074v" "1074"
"1075v" "1075"
"1076v" "1076"
"1077v" "1077"
"1078v" "1078"
"1079v" "1079"
"1080v" "1080"
"1081v" "1081"
"1082v" "1082"
"1083v" "1083"
"1084v" "1084"
"1085v" "1085"
"1086v" "1086"
"1087v" "1087"
"1088v" "1088"
"1089v" "1089"
"1090v" "1090"
"1091v" "1091"
"1092v" "1092"
"1093v" "1093"
"1094v" "1094"
"1095v" "1095"
"1096v" "1096"
"1097v" "1097"
"1098v" "1098"
"1099v" "1099"
"1100v" "1100"
"1101v" "1101"
"1102v" "1102"
"1103v" "1103"
"1104v" "1104"
"1105v" "1105"
"1106v" "1106"
"1107v" "1107"
"1108v" "1108"
"1109v" "1109"
"1110v" "1110"
"1111v" "1111"
"1112v" "1112"
"1113v" "1113"
"1114v" "1114"
"1115v" "1115"
"1116v" "1116"
"1117v" "1117"
"1118v" "1118"
"1119v" "1119"
"1120v" "1120"
"1121v" "1121"
"1122v" "1122"
"1123v" "1123"
"1124v" "1124"
"1125v" "1125"
"1126v" "1126"
"1127v" "1127"
"1128v" "1128"
"1129v" "1129"
"1130v" "1130"
"1131v" "1131"
"1132v" "1132"
"1133v" "1133"
"1134v" "1134"
"1135v" "1135"
"1136v" "1136"
"1137v" "1137"
"1138v" "1138"
"1139v" "1139"
"1140v" "1140"
"1141v" "1141"
"1142v" "1142"
"1143v" "1143"
"1144v" "1144"
"1145v" "1145"
"1146v" "1146"
"1147v" "1147"
"1148v" "1148"
"1149v" "1149"
"1150v" "1150"
"1151v" "1151"
"1152v" "1152"
"1153v" "1153"
"1154v" "1154"
"1155v" "1155"
"1156v" "1156"
"1157v" "1157"
"1158v" "1158"
"1159v" "1159"
"1160v" "1160"
"1161v" "1161"
"1162v" "1162"
"1163v" "1163"
"1164v" "1164"
"1165v" "1165"
"1166v" "1166"
"1167v" "1167"
"1168v" "1168"
"1169v" "1169"
"1170v" "1170"
"1171v" "1171"
"1172v" "1172"
"1173v" "1173"
"1174v" "1174"
"1175v" "1175"
"1176v" "1176"
"1177v" "1177"
"1178v" "1178"
"1179v" "1179"
"1180v" "1180"
"1181v" "1181"
"1182v" "1182"
"1183v" "1183"
"1184v" "1184"
"1185v" "1185"
"1186v" "1186"
"1187v" "1187"
"1188v" "1188"
"1189v" "1189"
"1190v" "1190"
"1191v" "1191"
"1192v" "1192"
"1193v" "1193"
"1194v" "1194"
"1195v" "1195"
"1196v" "1196"
"1197v" "1197"
"1198v" "1198"
"1199v" "1199"
"1200v" "1200"
"1201v" "1201"
"1202v" "1202"
"1203v" "1203"
"1204v" "1204"
"1205v" "1205"
"1206v" "1206"
"1207v" "1207"
"1208v" "1208"
"1209v" "1209"
"1210v" "1210"
"1211v" "1211"
"1212v" "1212"
"1213v" "1213"
"1214v" "1214"
"1215v" "1215"
"1216v" "1216"
"1217v" "1217"
"1218v" "1218"
"1219v" "1219"
"1220v" "1220"
"1221v" "1221"
"1222v" "1222"
"1223v" "1223"
"1224v" "1224"
"1225v" "1225"
"1226v" "1226"
"1227v" "1227"
"1228v" "1228"
"1229v" "1229"
"1230v" "1230"
"1231v" "1231"
"1232v" "1232"
"1233v" "1233"
"1234v" "1234"
"1235v" "1235"
"1236v" "1236"
"1237v" "1237"
"1238v" "1238"
"1239v" "1239"
"1240v" "1240"
"1241v" "1241"
"1242v" "1242"
"1243v" "1243"
"1244v" "1244"
"1245v" "1245"
"1246v" "1246"
"1247v" "1247"
"1248v" "1248"
"1249v" "1249"
"1250v" "1250"
"1251v" "1251"
"1252v" "1252"
"1253v" "1253"
"1254v" "1254"
"1255v" "1255"
"1256v" "1256"
"1257v" "1257"
"1258v" "1258"
"1259v" "1259"
"1260v" "1260"
"1261v" "1261"
"1262v" "1262"
"1263v" "1263"
"1264v" "1264"
"1265v" "1265"
"1266v" "1266"
"1267v" "1267"
"1268v" "1268"
"1269v" "1269"
"1270v" "1270"
"1271v" "1271"
"1272v" "1272"
"1273v" "1273"
"1274v" "1274"
"1275v" "1275"
"1276v" "1276"
"1277v" "1277"
"1278v" "1278"
"1279v" "1279"
"1280v" "1280"
"1281v" "1281"
"1282v" "1282"
"1283v" "1283"
"1284v" "1284"
"1285v" "1285"
"1286v" "1286"
"1287v" "1287"
"1288v" "1288"
"1289v" "1289"
"1290v" "1290"
"1291v" "1291"
"1292v" "1292"
"1293v" "1293"
"1294v" "1294"
"1295v" "1295"
"1296v" "1296"
"1297v" "1297"
"1298v" "1298"
"1299v" "1299"
"1300v" "1300"
"1301v" "1301"
"1302v" "1302"
"1303v" "1303"
"1304v" "1304"
"1305v" "1305"
"1306v" "1306"
"1307v" "1307"
"1308v" "1308"
"1309v" "1309"
"1310v" "1310"
"1311v" "1311"
"1312v" "1312"
"1313v" "1313"
"1314v" "1314"
"1315v" "1315"
"1316v" "1316"
"1317v" "1317"
"1318v" "1318"
"1319v" "1319"
"1320v" "1320"
"1321v" "1321"
"1322v" "1322"
"1323v" "1323"
"1324v" "1324"
"1325v" "1325"
"1326v" "1326"
"1327v" "1327"
"1328v" "1328"
"1329v" "1329"
"1330v" "1330"
"1331v" "1331"
"1332v" "1332"
"1333v" "1333"
"1334v" "1334"
"1335v" "1335"
"1336v" "1336"
"1337v" "1337"
"1338v" "1338"
"1339v" "1339"
"1340v" "1340"
"1341v" "1341"
"1342v" "1342"
"1343v" "1343"
"1344v" "1344"
"1345v" "1345"
"1346v" "1346"
"1347v" "1347"
"1348v" "1348"
"1349v" "1349"
"1350v" "1350"
"1351v" "1351"
"1352v" "1352"
"1353v" "1353"
"1354v" "1354"
"1355v" "1355"
"1356v" "1356"
"1357v" "1357"
"1358v" "1358"
"1359v" "1359"
"1360v" "1360"
"1361v" "1361"
"1362v" "1362"
"1363v" "1363"
"1364v" "1364"
"1365v" "1365"
"1366v" "1366"
"1367v" "1367"
"1368v" "1368"
"1369v" "1369"
"1370v" "1370"
"1371v" "1371"
"1372v" "1372"
"1373v" "1373"
"1374v" "1374"
"1375v" "1375"
"1376v" "1376"
"1377v" "1377"
"1378v" "1378"
"1379v" "1379"
"1380v" "1380"
"1381v" "1381"
"1382v" "1382"
"1383v" "1383"
"1384v" "1384"
"1385v" "1385"
"1386v" "1386"
"1387v" "1387"
"1388v" "1388"
"1389v" "1389"
"1390v" "1390"
"1391v" "1391"
"1392v" "1392"
"1393v" "1393"
"1394v" "1394"
"1395v" "1395"
"1396v" "1396"
"1397v" "1397"
"1398v" "1398"
"1399v" "1399"
"1400v" "1400"
"1401v" "1401"
"1402v" "1402"
"1403v" "1403"
"1404v" "1404"
"1405v" "1405"
"1406v" "1406"
"1407v" "1407"
"1408v" "1408"
"1409v" "1409"
"1410v" "1410"
"1411v" "1411"
"1412v" "1412"
"1413v" "1413"
"1414v" "1414"
"1415v" "1415"
"1416v" "1416"
"1417v" "1417"
"1418v" "1418"
"1419v" "1419"
"1420v" "1420"
"1421v" "1421"
"1422v" "1422"
"1423v" "1423"
"1424v" "1424"
"1425v" "1425"
"1426v" "1426"
"1427v" "1427"
"1428v" "1428"
"1429v" "1429"
"1430v" "1430"
"1431v" "1431"
"1432v" "1432"
"1433v" "1433"
"1434v" "1434"
"1435v" "1435"
"1436v" "1436"
"1437v" "1437"
"1438v" "1438"
"1439v" "1439"
"1440v" "1440"
"1441v" "1441"
"1442v" "1442"
"1443v" "1443"
"1444v" "1444"
"1445v" "1445"
"1446v" "1446"
"1447v" "1447"
"1448v" "1448"
"1449v" "1449"
"1450v" "1450"
"1451v" "1451"
"1452v" "1452"
"1453v" "1453"
"1454v" "1454"
"1455v" "1455"
"1456v" "1456"
"1457v" "1457"
"1458v" "1458"
"1459v" "1459"
"1460v" "1460"
"1461v" "1461"
"1462v" "1462"
"1463v" "1463"
"1464v" "1464"
"1465v" "1465"
"1466v" "1466"
"1467v" "1467"
"1468v" "1468"
"1469v" "1469"
"1470v" "1470"
"1471v" "1471"
"1472v" "1472"
"1473v" "1473"
"1474v" "1474"
"1475v" "1475"
"1476v" "1476"
"1477v" "1477"
"1478v" "1478"
"1479v" "1479"
"1480v" "1480"
"1481v" "1481"
"1482v" "1482"
"1483v" "1483"
"1484v" "1484"
"1485v" "1485"
"1486v" "1486"
"1487v" "1487"
"1488v" "1488"
"1489v" "1489"
"1490v" "1490"
"1491v" "1491"
"1492v" "1492"
"1493v" "1493"
"1494v" "1494"
"1495v" "1495"
"1496v" "1496"
"1497v" "1497"
"1498v" "1498"
"1499v" "1499"
"1500v" "1500"
