HEADER
"PSFversion" "1.00"
"C1501v" "+11756"
"C1501n" "NCSU_Analog_Parts_pcapacitor_ivpcell"
"C1502v" "+11755"
"C1502n" "NCSU_Analog_Parts_pcapacitor_ivpcell"
"C1503v" "+11670"
"C1503n" "NCSU_Analog_Parts_pcapacitor_ivpcell"
"C1504v" "+11669"
"C1504n" "NCSU_Analog_Parts_pcapacitor_ivpcell"
"C1505v" "+11586"
"C1505n" "NCSU_Analog_Parts_pcapacitor_ivpcell"
"C1506v" "+11557"
"C1506n" "NCSU_Analog_Parts_pcapacitor_ivpcell"
"C1507v" "+11541"
"C1507n" "NCSU_Analog_Parts_pcapacitor_ivpcell"
"C1508v" "+11531"
"C1508n" "NCSU_Analog_Parts_pcapacitor_ivpcell"
"C1509v" "+11513"
"C1509n" "NCSU_Analog_Parts_pcapacitor_ivpcell"
"C1510v" "+11471"
"C1510n" "NCSU_Analog_Parts_pcapacitor_ivpcell"
"C1511v" "+11470"
"C1511n" "NCSU_Analog_Parts_pcapacitor_ivpcell"
"C1512v" "+11451"
"C1512n" "NCSU_Analog_Parts_pcapacitor_ivpcell"
"C1513v" "+11426"
"C1513n" "NCSU_Analog_Parts_pcapacitor_ivpcell"
"C1514v" "+11425"
"C1514n" "NCSU_Analog_Parts_pcapacitor_ivpcell"
"C1515v" "+11367"
"C1515n" "NCSU_Analog_Parts_pcapacitor_ivpcell"
"C1516v" "+11366"
"C1516n" "NCSU_Analog_Parts_pcapacitor_ivpcell"
"C1517v" "+11350"
"C1517n" "NCSU_Analog_Parts_pcapacitor_ivpcell"
"C1518v" "+11345"
"C1518n" "NCSU_Analog_Parts_pcapacitor_ivpcell"
"C1519v" "+11343"
"C1519n" "NCSU_Analog_Parts_pcapacitor_ivpcell"
"C1520v" "+11339"
"C1520n" "NCSU_Analog_Parts_pcapacitor_ivpcell"
"C1521v" "+11321"
"C1521n" "NCSU_Analog_Parts_pcapacitor_ivpcell"
"C1522v" "+11314"
"C1522n" "NCSU_Analog_Parts_pcapacitor_ivpcell"
"C1523v" "+11312"
"C1523n" "NCSU_Analog_Parts_pcapacitor_ivpcell"
"C1524v" "+11311"
"C1524n" "NCSU_Analog_Parts_pcapacitor_ivpcell"
"C1525v" "+11310"
"C1525n" "NCSU_Analog_Parts_pcapacitor_ivpcell"
"C1526v" "+11309"
"C1526n" "NCSU_Analog_Parts_pcapacitor_ivpcell"
"C1527v" "+11308"
"C1527n" "NCSU_Analog_Parts_pcapacitor_ivpcell"
"C1528v" "+11307"
"C1528n" "NCSU_Analog_Parts_pcapacitor_ivpcell"
"C1529v" "+11304"
"C1529n" "NCSU_Analog_Parts_pcapacitor_ivpcell"
"C1530v" "+11303"
"C1530n" "NCSU_Analog_Parts_pcapacitor_ivpcell"
"C1531v" "+11302"
"C1531n" "NCSU_Analog_Parts_pcapacitor_ivpcell"
"C1532v" "+11300"
"C1532n" "NCSU_Analog_Parts_pcapacitor_ivpcell"
"C1533v" "+11299"
"C1533n" "NCSU_Analog_Parts_pcapacitor_ivpcell"
"C1534v" "+11296"
"C1534n" "NCSU_Analog_Parts_pcapacitor_ivpcell"
"C1535v" "+11295"
"C1535n" "NCSU_Analog_Parts_pcapacitor_ivpcell"
"C1536v" "+11292"
"C1536n" "NCSU_Analog_Parts_pcapacitor_ivpcell"
"C1537v" "+11287"
"C1537n" "NCSU_Analog_Parts_pcapacitor_ivpcell"
"C1538v" "+11286"
"C1538n" "NCSU_Analog_Parts_pcapacitor_ivpcell"
"C1539v" "+11283"
"C1539n" "NCSU_Analog_Parts_pcapacitor_ivpcell"
"C1540v" "+11282"
"C1540n" "NCSU_Analog_Parts_pcapacitor_ivpcell"
"C1541v" "+11281"
"C1541n" "NCSU_Analog_Parts_pcapacitor_ivpcell"
"C1542v" "+11280"
"C1542n" "NCSU_Analog_Parts_pcapacitor_ivpcell"
"C1543v" "+11279"
"C1543n" "NCSU_Analog_Parts_pcapacitor_ivpcell"
"C1544v" "+11277"
"C1544n" "NCSU_Analog_Parts_pcapacitor_ivpcell"
"C1545v" "+11276"
"C1545n" "NCSU_Analog_Parts_pcapacitor_ivpcell"
"C1546v" "+11274"
"C1546n" "NCSU_Analog_Parts_pcapacitor_ivpcell"
"C1547v" "+11273"
"C1547n" "NCSU_Analog_Parts_pcapacitor_ivpcell"
"C1548v" "+11272"
"C1548n" "NCSU_Analog_Parts_pcapacitor_ivpcell"
"C1549v" "+11271"
"C1549n" "NCSU_Analog_Parts_pcapacitor_ivpcell"
"C1550v" "+11270"
"C1550n" "NCSU_Analog_Parts_pcapacitor_ivpcell"
"C1551v" "+11269"
"C1551n" "NCSU_Analog_Parts_pcapacitor_ivpcell"
"C1552v" "+11268"
"C1552n" "NCSU_Analog_Parts_pcapacitor_ivpcell"
"C1553v" "+11267"
"C1553n" "NCSU_Analog_Parts_pcapacitor_ivpcell"
"C1554v" "+11266"
"C1554n" "NCSU_Analog_Parts_pcapacitor_ivpcell"
"C1555v" "+11265"
"C1555n" "NCSU_Analog_Parts_pcapacitor_ivpcell"
"C1556v" "+11264"
"C1556n" "NCSU_Analog_Parts_pcapacitor_ivpcell"
"C1557v" "+11262"
"C1557n" "NCSU_Analog_Parts_pcapacitor_ivpcell"
"C1558v" "+11260"
"C1558n" "NCSU_Analog_Parts_pcapacitor_ivpcell"
"C1559v" "+11259"
"C1559n" "NCSU_Analog_Parts_pcapacitor_ivpcell"
"C1560v" "+11255"
"C1560n" "NCSU_Analog_Parts_pcapacitor_ivpcell"
"C1561v" "+11254"
"C1561n" "NCSU_Analog_Parts_pcapacitor_ivpcell"
"C1562v" "+11251"
"C1562n" "NCSU_Analog_Parts_pcapacitor_ivpcell"
"C1563v" "+11249"
"C1563n" "NCSU_Analog_Parts_pcapacitor_ivpcell"
"C1564v" "+11246"
"C1564n" "NCSU_Analog_Parts_pcapacitor_ivpcell"
"C1565v" "+11242"
"C1565n" "NCSU_Analog_Parts_pcapacitor_ivpcell"
"C1566v" "+11241"
"C1566n" "NCSU_Analog_Parts_pcapacitor_ivpcell"
"C1567v" "+11235"
"C1567n" "NCSU_Analog_Parts_pcapacitor_ivpcell"
"C1568v" "+11216"
"C1568n" "NCSU_Analog_Parts_pcapacitor_ivpcell"
"C1569v" "+11214"
"C1569n" "NCSU_Analog_Parts_pcapacitor_ivpcell"
"C1570v" "+11213"
"C1570n" "NCSU_Analog_Parts_pcapacitor_ivpcell"
"C1571v" "+11206"
"C1571n" "NCSU_Analog_Parts_pcapacitor_ivpcell"
"C1572v" "+11204"
"C1572n" "NCSU_Analog_Parts_pcapacitor_ivpcell"
"C1573v" "+11203"
"C1573n" "NCSU_Analog_Parts_pcapacitor_ivpcell"
"C1574v" "+11202"
"C1574n" "NCSU_Analog_Parts_pcapacitor_ivpcell"
"C1575v" "+11182"
"C1575n" "NCSU_Analog_Parts_pcapacitor_ivpcell"
"C1576v" "+11181"
"C1576n" "NCSU_Analog_Parts_pcapacitor_ivpcell"
"C1577v" "+11172"
"C1577n" "NCSU_Analog_Parts_pcapacitor_ivpcell"
"C1578v" "+11150"
"C1578n" "NCSU_Analog_Parts_pcapacitor_ivpcell"
"C1579v" "+11138"
"C1579n" "NCSU_Analog_Parts_pcapacitor_ivpcell"
"C1580v" "+11119"
"C1580n" "NCSU_Analog_Parts_pcapacitor_ivpcell"
"C1581v" "+11105"
"C1581n" "NCSU_Analog_Parts_pcapacitor_ivpcell"
"C1582v" "+11085"
"C1582n" "NCSU_Analog_Parts_pcapacitor_ivpcell"
"C1583v" "+10977"
"C1583n" "NCSU_Analog_Parts_pcapacitor_ivpcell"
"C1584v" "+10956"
"C1584n" "NCSU_Analog_Parts_pcapacitor_ivpcell"
"C1585v" "+10953"
"C1585n" "NCSU_Analog_Parts_pcapacitor_ivpcell"
"C1586v" "+10948"
"C1586n" "NCSU_Analog_Parts_pcapacitor_ivpcell"
"C1587v" "+10941"
"C1587n" "NCSU_Analog_Parts_pcapacitor_ivpcell"
"C1588v" "+10936"
"C1588n" "NCSU_Analog_Parts_pcapacitor_ivpcell"
"C1589v" "+10935"
"C1589n" "NCSU_Analog_Parts_pcapacitor_ivpcell"
"C1590v" "+10934"
"C1590n" "NCSU_Analog_Parts_pcapacitor_ivpcell"
"C1591v" "+10933"
"C1591n" "NCSU_Analog_Parts_pcapacitor_ivpcell"
"C1592v" "+10930"
"C1592n" "NCSU_Analog_Parts_pcapacitor_ivpcell"
"C1593v" "+10929"
"C1593n" "NCSU_Analog_Parts_pcapacitor_ivpcell"
"C1594v" "+10927"
"C1594n" "NCSU_Analog_Parts_pcapacitor_ivpcell"
"C1595v" "+10924"
"C1595n" "NCSU_Analog_Parts_pcapacitor_ivpcell"
"C1596v" "+10921"
"C1596n" "NCSU_Analog_Parts_pcapacitor_ivpcell"
"C1597v" "+10917"
"C1597n" "NCSU_Analog_Parts_pcapacitor_ivpcell"
"C1598v" "+10913"
"C1598n" "NCSU_Analog_Parts_pcapacitor_ivpcell"
"C1599v" "+10909"
"C1599n" "NCSU_Analog_Parts_pcapacitor_ivpcell"
"C1600v" "+10907"
"C1600n" "NCSU_Analog_Parts_pcapacitor_ivpcell"
"C1601v" "+10906"
"C1601n" "NCSU_Analog_Parts_pcapacitor_ivpcell"
"C1602v" "+10904"
"C1602n" "NCSU_Analog_Parts_pcapacitor_ivpcell"
"C1603v" "+10903"
"C1603n" "NCSU_Analog_Parts_pcapacitor_ivpcell"
"C1604v" "+10900"
"C1604n" "NCSU_Analog_Parts_pcapacitor_ivpcell"
"C1605v" "+10898"
"C1605n" "NCSU_Analog_Parts_pcapacitor_ivpcell"
"C1606v" "+10897"
"C1606n" "NCSU_Analog_Parts_pcapacitor_ivpcell"
"C1607v" "+10894"
"C1607n" "NCSU_Analog_Parts_pcapacitor_ivpcell"
"C1608v" "+10891"
"C1608n" "NCSU_Analog_Parts_pcapacitor_ivpcell"
"C1609v" "+10886"
"C1609n" "NCSU_Analog_Parts_pcapacitor_ivpcell"
"C1610v" "+10879"
"C1610n" "NCSU_Analog_Parts_pcapacitor_ivpcell"
"C1611v" "+10878"
"C1611n" "NCSU_Analog_Parts_pcapacitor_ivpcell"
"C1612v" "+10856"
"C1612n" "NCSU_Analog_Parts_pcapacitor_ivpcell"
"C1613v" "+10848"
"C1613n" "NCSU_Analog_Parts_pcapacitor_ivpcell"
"C1614v" "+10847"
"C1614n" "NCSU_Analog_Parts_pcapacitor_ivpcell"
"C1615v" "+10846"
"C1615n" "NCSU_Analog_Parts_pcapacitor_ivpcell"
"C1616v" "+10826"
"C1616n" "NCSU_Analog_Parts_pcapacitor_ivpcell"
"C1617v" "+10764"
"C1617n" "NCSU_Analog_Parts_pcapacitor_ivpcell"
"C1618v" "+10763"
"C1618n" "NCSU_Analog_Parts_pcapacitor_ivpcell"
"C1619v" "+10739"
"C1619n" "NCSU_Analog_Parts_pcapacitor_ivpcell"
"C1620v" "+10738"
"C1620n" "NCSU_Analog_Parts_pcapacitor_ivpcell"
"C1621v" "+10732"
"C1621n" "NCSU_Analog_Parts_pcapacitor_ivpcell"
"C1622v" "+10611"
"C1622n" "NCSU_Analog_Parts_pcapacitor_ivpcell"
"C1623v" "+10595"
"C1623n" "NCSU_Analog_Parts_pcapacitor_ivpcell"
"C1624v" "+10578"
"C1624n" "NCSU_Analog_Parts_pcapacitor_ivpcell"
"C1625v" "+10530"
"C1625n" "NCSU_Analog_Parts_pcapacitor_ivpcell"
"C1626v" "+10529"
"C1626n" "NCSU_Analog_Parts_pcapacitor_ivpcell"
"C1627v" "+10397"
"C1627n" "NCSU_Analog_Parts_pcapacitor_ivpcell"
"C1628v" "+10396"
"C1628n" "NCSU_Analog_Parts_pcapacitor_ivpcell"
"C1629v" "+10311"
"C1629n" "NCSU_Analog_Parts_pcapacitor_ivpcell"
"C1630v" "+10308"
"C1630n" "NCSU_Analog_Parts_pcapacitor_ivpcell"
"C1631v" "+10250"
"C1631n" "NCSU_Analog_Parts_pcapacitor_ivpcell"
"C1632v" "+10176"
"C1632n" "NCSU_Analog_Parts_pcapacitor_ivpcell"
"C1633v" "+10060"
"C1633n" "NCSU_Analog_Parts_pcapacitor_ivpcell"
"C1634v" "+10034"
"C1634n" "NCSU_Analog_Parts_pcapacitor_ivpcell"
"C1635v" "+10033"
"C1635n" "NCSU_Analog_Parts_pcapacitor_ivpcell"
"C1636v" "+10032"
"C1636n" "NCSU_Analog_Parts_pcapacitor_ivpcell"
"C1637v" "+10003"
"C1637n" "NCSU_Analog_Parts_pcapacitor_ivpcell"
"C1638v" "+9964"
"C1638n" "NCSU_Analog_Parts_pcapacitor_ivpcell"
"C1639v" "+9940"
"C1639n" "NCSU_Analog_Parts_pcapacitor_ivpcell"
"C1640v" "+9917"
"C1640n" "NCSU_Analog_Parts_pcapacitor_ivpcell"
"C1641v" "+9901"
"C1641n" "NCSU_Analog_Parts_pcapacitor_ivpcell"
"C1642v" "+9899"
"C1642n" "NCSU_Analog_Parts_pcapacitor_ivpcell"
"C1643v" "+9895"
"C1643n" "NCSU_Analog_Parts_pcapacitor_ivpcell"
"C1644v" "+9893"
"C1644n" "NCSU_Analog_Parts_pcapacitor_ivpcell"
"C1645v" "+9892"
"C1645n" "NCSU_Analog_Parts_pcapacitor_ivpcell"
"C1646v" "+9891"
"C1646n" "NCSU_Analog_Parts_pcapacitor_ivpcell"
"C1647v" "+9890"
"C1647n" "NCSU_Analog_Parts_pcapacitor_ivpcell"
"C1648v" "+9889"
"C1648n" "NCSU_Analog_Parts_pcapacitor_ivpcell"
"C1649v" "+9888"
"C1649n" "NCSU_Analog_Parts_pcapacitor_ivpcell"
"C1650v" "+9887"
"C1650n" "NCSU_Analog_Parts_pcapacitor_ivpcell"
"C1651v" "+9886"
"C1651n" "NCSU_Analog_Parts_pcapacitor_ivpcell"
"C1652v" "+9885"
"C1652n" "NCSU_Analog_Parts_pcapacitor_ivpcell"
"C1653v" "+9884"
"C1653n" "NCSU_Analog_Parts_pcapacitor_ivpcell"
"C1654v" "+9883"
"C1654n" "NCSU_Analog_Parts_pcapacitor_ivpcell"
"C1655v" "+9881"
"C1655n" "NCSU_Analog_Parts_pcapacitor_ivpcell"
"C1656v" "+9880"
"C1656n" "NCSU_Analog_Parts_pcapacitor_ivpcell"
"C1657v" "+9879"
"C1657n" "NCSU_Analog_Parts_pcapacitor_ivpcell"
"C1658v" "+9878"
"C1658n" "NCSU_Analog_Parts_pcapacitor_ivpcell"
"C1659v" "+9875"
"C1659n" "NCSU_Analog_Parts_pcapacitor_ivpcell"
"C1660v" "+9874"
"C1660n" "NCSU_Analog_Parts_pcapacitor_ivpcell"
"C1661v" "+9873"
"C1661n" "NCSU_Analog_Parts_pcapacitor_ivpcell"
"C1662v" "+9872"
"C1662n" "NCSU_Analog_Parts_pcapacitor_ivpcell"
"C1663v" "+9871"
"C1663n" "NCSU_Analog_Parts_pcapacitor_ivpcell"
"C1664v" "+9870"
"C1664n" "NCSU_Analog_Parts_pcapacitor_ivpcell"
"C1665v" "+9869"
"C1665n" "NCSU_Analog_Parts_pcapacitor_ivpcell"
"C1666v" "+9868"
"C1666n" "NCSU_Analog_Parts_pcapacitor_ivpcell"
"C1667v" "+9867"
"C1667n" "NCSU_Analog_Parts_pcapacitor_ivpcell"
"C1668v" "+9866"
"C1668n" "NCSU_Analog_Parts_pcapacitor_ivpcell"
"C1669v" "+9865"
"C1669n" "NCSU_Analog_Parts_pcapacitor_ivpcell"
"C1670v" "+9863"
"C1670n" "NCSU_Analog_Parts_pcapacitor_ivpcell"
"C1671v" "+9861"
"C1671n" "NCSU_Analog_Parts_pcapacitor_ivpcell"
"C1672v" "+9860"
"C1672n" "NCSU_Analog_Parts_pcapacitor_ivpcell"
"C1673v" "+9858"
"C1673n" "NCSU_Analog_Parts_pcapacitor_ivpcell"
"C1674v" "+9857"
"C1674n" "NCSU_Analog_Parts_pcapacitor_ivpcell"
"C1675v" "+9856"
"C1675n" "NCSU_Analog_Parts_pcapacitor_ivpcell"
"C1676v" "+9855"
"C1676n" "NCSU_Analog_Parts_pcapacitor_ivpcell"
"C1677v" "+9854"
"C1677n" "NCSU_Analog_Parts_pcapacitor_ivpcell"
"C1678v" "+9853"
"C1678n" "NCSU_Analog_Parts_pcapacitor_ivpcell"
"C1679v" "+9852"
"C1679n" "NCSU_Analog_Parts_pcapacitor_ivpcell"
"C1680v" "+9850"
"C1680n" "NCSU_Analog_Parts_pcapacitor_ivpcell"
"C1681v" "+9849"
"C1681n" "NCSU_Analog_Parts_pcapacitor_ivpcell"
"C1682v" "+9848"
"C1682n" "NCSU_Analog_Parts_pcapacitor_ivpcell"
"C1683v" "+9847"
"C1683n" "NCSU_Analog_Parts_pcapacitor_ivpcell"
"C1684v" "+9846"
"C1684n" "NCSU_Analog_Parts_pcapacitor_ivpcell"
"C1685v" "+9845"
"C1685n" "NCSU_Analog_Parts_pcapacitor_ivpcell"
"C1686v" "+9844"
"C1686n" "NCSU_Analog_Parts_pcapacitor_ivpcell"
"C1687v" "+9842"
"C1687n" "NCSU_Analog_Parts_pcapacitor_ivpcell"
"C1688v" "+9841"
"C1688n" "NCSU_Analog_Parts_pcapacitor_ivpcell"
"C1689v" "+9840"
"C1689n" "NCSU_Analog_Parts_pcapacitor_ivpcell"
"C1690v" "+9839"
"C1690n" "NCSU_Analog_Parts_pcapacitor_ivpcell"
"C1691v" "+9837"
"C1691n" "NCSU_Analog_Parts_pcapacitor_ivpcell"
"C1692v" "+9836"
"C1692n" "NCSU_Analog_Parts_pcapacitor_ivpcell"
"C1693v" "+9835"
"C1693n" "NCSU_Analog_Parts_pcapacitor_ivpcell"
"C1694v" "+9834"
"C1694n" "NCSU_Analog_Parts_pcapacitor_ivpcell"
"C1695v" "+9833"
"C1695n" "NCSU_Analog_Parts_pcapacitor_ivpcell"
"C1696v" "+9832"
"C1696n" "NCSU_Analog_Parts_pcapacitor_ivpcell"
"C1697v" "+9831"
"C1697n" "NCSU_Analog_Parts_pcapacitor_ivpcell"
"C1698v" "+9830"
"C1698n" "NCSU_Analog_Parts_pcapacitor_ivpcell"
"C1699v" "+9829"
"C1699n" "NCSU_Analog_Parts_pcapacitor_ivpcell"
"C1700v" "+9828"
"C1700n" "NCSU_Analog_Parts_pcapacitor_ivpcell"
"C1701v" "+9827"
"C1701n" "NCSU_Analog_Parts_pcapacitor_ivpcell"
"C1702v" "+9826"
"C1702n" "NCSU_Analog_Parts_pcapacitor_ivpcell"
"C1703v" "+9825"
"C1703n" "NCSU_Analog_Parts_pcapacitor_ivpcell"
"C1704v" "+9824"
"C1704n" "NCSU_Analog_Parts_pcapacitor_ivpcell"
"C1705v" "+9823"
"C1705n" "NCSU_Analog_Parts_pcapacitor_ivpcell"
"C1706v" "+9822"
"C1706n" "NCSU_Analog_Parts_pcapacitor_ivpcell"
"C1707v" "+9821"
"C1707n" "NCSU_Analog_Parts_pcapacitor_ivpcell"
"C1708v" "+9819"
"C1708n" "NCSU_Analog_Parts_pcapacitor_ivpcell"
"C1709v" "+9817"
"C1709n" "NCSU_Analog_Parts_pcapacitor_ivpcell"
"C1710v" "+9816"
"C1710n" "NCSU_Analog_Parts_pcapacitor_ivpcell"
"C1711v" "+9815"
"C1711n" "NCSU_Analog_Parts_pcapacitor_ivpcell"
"C1712v" "+9806"
"C1712n" "NCSU_Analog_Parts_pcapacitor_ivpcell"
"C1713v" "+9803"
"C1713n" "NCSU_Analog_Parts_pcapacitor_ivpcell"
"C1714v" "+9801"
"C1714n" "NCSU_Analog_Parts_pcapacitor_ivpcell"
"C1715v" "+9792"
"C1715n" "NCSU_Analog_Parts_pcapacitor_ivpcell"
"C1716v" "+9790"
"C1716n" "NCSU_Analog_Parts_pcapacitor_ivpcell"
"C1717v" "+9753"
"C1717n" "NCSU_Analog_Parts_pcapacitor_ivpcell"
"C1718v" "+9751"
"C1718n" "NCSU_Analog_Parts_pcapacitor_ivpcell"
"C1719v" "+9750"
"C1719n" "NCSU_Analog_Parts_pcapacitor_ivpcell"
"C1720v" "+9749"
"C1720n" "NCSU_Analog_Parts_pcapacitor_ivpcell"
"C1721v" "+9729"
"C1721n" "NCSU_Analog_Parts_pcapacitor_ivpcell"
"C1722v" "+9697"
"C1722n" "NCSU_Analog_Parts_pcapacitor_ivpcell"
"C1723v" "+9641"
"C1723n" "NCSU_Analog_Parts_pcapacitor_ivpcell"
"C1724v" "+9637"
"C1724n" "NCSU_Analog_Parts_pcapacitor_ivpcell"
"C1725v" "+9612"
"C1725n" "NCSU_Analog_Parts_pcapacitor_ivpcell"
"C1726v" "+9396"
"C1726n" "NCSU_Analog_Parts_pcapacitor_ivpcell"
"C1727v" "+9281"
"C1727n" "NCSU_Analog_Parts_pcapacitor_ivpcell"
"C1728v" "+9280"
"C1728n" "NCSU_Analog_Parts_pcapacitor_ivpcell"
"C1729v" "+9224"
"C1729n" "NCSU_Analog_Parts_pcapacitor_ivpcell"
"C1730v" "+9223"
"C1730n" "NCSU_Analog_Parts_pcapacitor_ivpcell"
"C1731v" "+9195"
"C1731n" "NCSU_Analog_Parts_pcapacitor_ivpcell"
"C1732v" "+9185"
"C1732n" "NCSU_Analog_Parts_pcapacitor_ivpcell"
"C1733v" "+9175"
"C1733n" "NCSU_Analog_Parts_pcapacitor_ivpcell"
"C1734v" "+9174"
"C1734n" "NCSU_Analog_Parts_pcapacitor_ivpcell"
"C1735v" "+9173"
"C1735n" "NCSU_Analog_Parts_pcapacitor_ivpcell"
"C1736v" "+9172"
"C1736n" "NCSU_Analog_Parts_pcapacitor_ivpcell"
"C1737v" "+9168"
"C1737n" "NCSU_Analog_Parts_pcapacitor_ivpcell"
"C1738v" "+9167"
"C1738n" "NCSU_Analog_Parts_pcapacitor_ivpcell"
"C1739v" "+9166"
"C1739n" "NCSU_Analog_Parts_pcapacitor_ivpcell"
"C1740v" "+9165"
"C1740n" "NCSU_Analog_Parts_pcapacitor_ivpcell"
"C1741v" "+9164"
"C1741n" "NCSU_Analog_Parts_pcapacitor_ivpcell"
"C1742v" "+9163"
"C1742n" "NCSU_Analog_Parts_pcapacitor_ivpcell"
"C1743v" "+9161"
"C1743n" "NCSU_Analog_Parts_pcapacitor_ivpcell"
"C1744v" "+9160"
"C1744n" "NCSU_Analog_Parts_pcapacitor_ivpcell"
"C1745v" "+9159"
"C1745n" "NCSU_Analog_Parts_pcapacitor_ivpcell"
"C1746v" "+9158"
"C1746n" "NCSU_Analog_Parts_pcapacitor_ivpcell"
"C1747v" "+9157"
"C1747n" "NCSU_Analog_Parts_pcapacitor_ivpcell"
"C1748v" "+9156"
"C1748n" "NCSU_Analog_Parts_pcapacitor_ivpcell"
"C1749v" "+9155"
"C1749n" "NCSU_Analog_Parts_pcapacitor_ivpcell"
"C1750v" "+9154"
"C1750n" "NCSU_Analog_Parts_pcapacitor_ivpcell"
"C1751v" "+9153"
"C1751n" "NCSU_Analog_Parts_pcapacitor_ivpcell"
"C1752v" "+9152"
"C1752n" "NCSU_Analog_Parts_pcapacitor_ivpcell"
"C1753v" "+9151"
"C1753n" "NCSU_Analog_Parts_pcapacitor_ivpcell"
"C1754v" "+9150"
"C1754n" "NCSU_Analog_Parts_pcapacitor_ivpcell"
"C1755v" "+9149"
"C1755n" "NCSU_Analog_Parts_pcapacitor_ivpcell"
"C1756v" "+9148"
"C1756n" "NCSU_Analog_Parts_pcapacitor_ivpcell"
"C1757v" "+9147"
"C1757n" "NCSU_Analog_Parts_pcapacitor_ivpcell"
"C1758v" "+9144"
"C1758n" "NCSU_Analog_Parts_pcapacitor_ivpcell"
"C1759v" "+9143"
"C1759n" "NCSU_Analog_Parts_pcapacitor_ivpcell"
"C1760v" "+9142"
"C1760n" "NCSU_Analog_Parts_pcapacitor_ivpcell"
"C1761v" "+9141"
"C1761n" "NCSU_Analog_Parts_pcapacitor_ivpcell"
"C1762v" "+9140"
"C1762n" "NCSU_Analog_Parts_pcapacitor_ivpcell"
"C1763v" "+9139"
"C1763n" "NCSU_Analog_Parts_pcapacitor_ivpcell"
"C1764v" "+9138"
"C1764n" "NCSU_Analog_Parts_pcapacitor_ivpcell"
"C1765v" "+9127"
"C1765n" "NCSU_Analog_Parts_pcapacitor_ivpcell"
"C1766v" "+9123"
"C1766n" "NCSU_Analog_Parts_pcapacitor_ivpcell"
"C1767v" "+9120"
"C1767n" "NCSU_Analog_Parts_pcapacitor_ivpcell"
"C1768v" "+9117"
"C1768n" "NCSU_Analog_Parts_pcapacitor_ivpcell"
"C1769v" "+9116"
"C1769n" "NCSU_Analog_Parts_pcapacitor_ivpcell"
"C1770v" "+9115"
"C1770n" "NCSU_Analog_Parts_pcapacitor_ivpcell"
"C1771v" "+9099"
"C1771n" "NCSU_Analog_Parts_pcapacitor_ivpcell"
"C1772v" "+9068"
"C1772n" "NCSU_Analog_Parts_pcapacitor_ivpcell"
"C1773v" "+8975"
"C1773n" "NCSU_Analog_Parts_pcapacitor_ivpcell"
"C1774v" "+8962"
"C1774n" "NCSU_Analog_Parts_pcapacitor_ivpcell"
"C1775v" "+8957"
"C1775n" "NCSU_Analog_Parts_pcapacitor_ivpcell"
"C1776v" "+8949"
"C1776n" "NCSU_Analog_Parts_pcapacitor_ivpcell"
"C1777v" "+8904"
"C1777n" "NCSU_Analog_Parts_pcapacitor_ivpcell"
"C1778v" "+8865"
"C1778n" "NCSU_Analog_Parts_pcapacitor_ivpcell"
"C1779v" "+8864"
"C1779n" "NCSU_Analog_Parts_pcapacitor_ivpcell"
"C1780v" "+8821"
"C1780n" "NCSU_Analog_Parts_pcapacitor_ivpcell"
"C1781v" "+8580"
"C1781n" "NCSU_Analog_Parts_pcapacitor_ivpcell"
"C1782v" "+8343"
"C1782n" "NCSU_Analog_Parts_pcapacitor_ivpcell"
"C1783v" "+8243"
"C1783n" "NCSU_Analog_Parts_pcapacitor_ivpcell"
"C1784v" "+8242"
"C1784n" "NCSU_Analog_Parts_pcapacitor_ivpcell"
"C1785v" "+8144"
"C1785n" "NCSU_Analog_Parts_pcapacitor_ivpcell"
"C1786v" "+8143"
"C1786n" "NCSU_Analog_Parts_pcapacitor_ivpcell"
"C1787v" "+8105"
"C1787n" "NCSU_Analog_Parts_pcapacitor_ivpcell"
"C1788v" "+8092"
"C1788n" "NCSU_Analog_Parts_pcapacitor_ivpcell"
"C1789v" "+8091"
"C1789n" "NCSU_Analog_Parts_pcapacitor_ivpcell"
"C1790v" "+8090"
"C1790n" "NCSU_Analog_Parts_pcapacitor_ivpcell"
"C1791v" "+8077"
"C1791n" "NCSU_Analog_Parts_pcapacitor_ivpcell"
"C1792v" "+8076"
"C1792n" "NCSU_Analog_Parts_pcapacitor_ivpcell"
"C1793v" "+8035"
"C1793n" "NCSU_Analog_Parts_pcapacitor_ivpcell"
"C1794v" "+8015"
"C1794n" "NCSU_Analog_Parts_pcapacitor_ivpcell"
"C1795v" "+8014"
"C1795n" "NCSU_Analog_Parts_pcapacitor_ivpcell"
"C1796v" "+8013"
"C1796n" "NCSU_Analog_Parts_pcapacitor_ivpcell"
"C1797v" "+8012"
"C1797n" "NCSU_Analog_Parts_pcapacitor_ivpcell"
"C1798v" "+8011"
"C1798n" "NCSU_Analog_Parts_pcapacitor_ivpcell"
"C1799v" "+8010"
"C1799n" "NCSU_Analog_Parts_pcapacitor_ivpcell"
"C1800v" "+8009"
"C1800n" "NCSU_Analog_Parts_pcapacitor_ivpcell"
"C1801v" "+8008"
"C1801n" "NCSU_Analog_Parts_pcapacitor_ivpcell"
"C1802v" "+8007"
"C1802n" "NCSU_Analog_Parts_pcapacitor_ivpcell"
"C1803v" "+8006"
"C1803n" "NCSU_Analog_Parts_pcapacitor_ivpcell"
"C1804v" "+8005"
"C1804n" "NCSU_Analog_Parts_pcapacitor_ivpcell"
"C1805v" "+8004"
"C1805n" "NCSU_Analog_Parts_pcapacitor_ivpcell"
"C1806v" "+8003"
"C1806n" "NCSU_Analog_Parts_pcapacitor_ivpcell"
"C1807v" "+8002"
"C1807n" "NCSU_Analog_Parts_pcapacitor_ivpcell"
"C1808v" "+8001"
"C1808n" "NCSU_Analog_Parts_pcapacitor_ivpcell"
"C1809v" "+8000"
"C1809n" "NCSU_Analog_Parts_pcapacitor_ivpcell"
"C1810v" "+7999"
"C1810n" "NCSU_Analog_Parts_pcapacitor_ivpcell"
"C1811v" "+7998"
"C1811n" "NCSU_Analog_Parts_pcapacitor_ivpcell"
"C1812v" "+7997"
"C1812n" "NCSU_Analog_Parts_pcapacitor_ivpcell"
"C1813v" "+7996"
"C1813n" "NCSU_Analog_Parts_pcapacitor_ivpcell"
"C1814v" "+7995"
"C1814n" "NCSU_Analog_Parts_pcapacitor_ivpcell"
"C1815v" "+7988"
"C1815n" "NCSU_Analog_Parts_pcapacitor_ivpcell"
"C1816v" "+7980"
"C1816n" "NCSU_Analog_Parts_pcapacitor_ivpcell"
"C1817v" "+7979"
"C1817n" "NCSU_Analog_Parts_pcapacitor_ivpcell"
"C1818v" "+7978"
"C1818n" "NCSU_Analog_Parts_pcapacitor_ivpcell"
"C1819v" "+7977"
"C1819n" "NCSU_Analog_Parts_pcapacitor_ivpcell"
"C1820v" "+7976"
"C1820n" "NCSU_Analog_Parts_pcapacitor_ivpcell"
"C1821v" "+7975"
"C1821n" "NCSU_Analog_Parts_pcapacitor_ivpcell"
"C1822v" "+7974"
"C1822n" "NCSU_Analog_Parts_pcapacitor_ivpcell"
"C1823v" "+7972"
"C1823n" "NCSU_Analog_Parts_pcapacitor_ivpcell"
"C1824v" "+7971"
"C1824n" "NCSU_Analog_Parts_pcapacitor_ivpcell"
"C1825v" "+7968"
"C1825n" "NCSU_Analog_Parts_pcapacitor_ivpcell"
"C1826v" "+7960"
"C1826n" "NCSU_Analog_Parts_pcapacitor_ivpcell"
"C1827v" "+7959"
"C1827n" "NCSU_Analog_Parts_pcapacitor_ivpcell"
"C1828v" "+7958"
"C1828n" "NCSU_Analog_Parts_pcapacitor_ivpcell"
"C1829v" "+7951"
"C1829n" "NCSU_Analog_Parts_pcapacitor_ivpcell"
"C1830v" "+7942"
"C1830n" "NCSU_Analog_Parts_pcapacitor_ivpcell"
"C1831v" "+7941"
"C1831n" "NCSU_Analog_Parts_pcapacitor_ivpcell"
"C1832v" "+7940"
"C1832n" "NCSU_Analog_Parts_pcapacitor_ivpcell"
"C1833v" "+7939"
"C1833n" "NCSU_Analog_Parts_pcapacitor_ivpcell"
"C1834v" "+7938"
"C1834n" "NCSU_Analog_Parts_pcapacitor_ivpcell"
"C1835v" "+7937"
"C1835n" "NCSU_Analog_Parts_pcapacitor_ivpcell"
"C1836v" "+7936"
"C1836n" "NCSU_Analog_Parts_pcapacitor_ivpcell"
"C1837v" "+7935"
"C1837n" "NCSU_Analog_Parts_pcapacitor_ivpcell"
"C1838v" "+7934"
"C1838n" "NCSU_Analog_Parts_pcapacitor_ivpcell"
"C1839v" "+7933"
"C1839n" "NCSU_Analog_Parts_pcapacitor_ivpcell"
"C1840v" "+7925"
"C1840n" "NCSU_Analog_Parts_pcapacitor_ivpcell"
"C1841v" "+7917"
"C1841n" "NCSU_Analog_Parts_pcapacitor_ivpcell"
"C1842v" "+7916"
"C1842n" "NCSU_Analog_Parts_pcapacitor_ivpcell"
"C1843v" "+7915"
"C1843n" "NCSU_Analog_Parts_pcapacitor_ivpcell"
"C1844v" "+7914"
"C1844n" "NCSU_Analog_Parts_pcapacitor_ivpcell"
"C1845v" "+7913"
"C1845n" "NCSU_Analog_Parts_pcapacitor_ivpcell"
"C1846v" "+7912"
"C1846n" "NCSU_Analog_Parts_pcapacitor_ivpcell"
"C1847v" "+7911"
"C1847n" "NCSU_Analog_Parts_pcapacitor_ivpcell"
"C1848v" "+7892"
"C1848n" "NCSU_Analog_Parts_pcapacitor_ivpcell"
"C1849v" "+7891"
"C1849n" "NCSU_Analog_Parts_pcapacitor_ivpcell"
"C1850v" "+7890"
"C1850n" "NCSU_Analog_Parts_pcapacitor_ivpcell"
"C1851v" "+7881"
"C1851n" "NCSU_Analog_Parts_pcapacitor_ivpcell"
"C1852v" "+7873"
"C1852n" "NCSU_Analog_Parts_pcapacitor_ivpcell"
"C1853v" "+7872"
"C1853n" "NCSU_Analog_Parts_pcapacitor_ivpcell"
"C1854v" "+7871"
"C1854n" "NCSU_Analog_Parts_pcapacitor_ivpcell"
"C1855v" "+7870"
"C1855n" "NCSU_Analog_Parts_pcapacitor_ivpcell"
"C1856v" "+7869"
"C1856n" "NCSU_Analog_Parts_pcapacitor_ivpcell"
"C1857v" "+7868"
"C1857n" "NCSU_Analog_Parts_pcapacitor_ivpcell"
"C1858v" "+7867"
"C1858n" "NCSU_Analog_Parts_pcapacitor_ivpcell"
"C1859v" "+7866"
"C1859n" "NCSU_Analog_Parts_pcapacitor_ivpcell"
"C1860v" "+7865"
"C1860n" "NCSU_Analog_Parts_pcapacitor_ivpcell"
"C1861v" "+7857"
"C1861n" "NCSU_Analog_Parts_pcapacitor_ivpcell"
"C1862v" "+7856"
"C1862n" "NCSU_Analog_Parts_pcapacitor_ivpcell"
"C1863v" "+7849"
"C1863n" "NCSU_Analog_Parts_pcapacitor_ivpcell"
"C1864v" "+7848"
"C1864n" "NCSU_Analog_Parts_pcapacitor_ivpcell"
"C1865v" "+7847"
"C1865n" "NCSU_Analog_Parts_pcapacitor_ivpcell"
"C1866v" "+7846"
"C1866n" "NCSU_Analog_Parts_pcapacitor_ivpcell"
"C1867v" "+7845"
"C1867n" "NCSU_Analog_Parts_pcapacitor_ivpcell"
"C1868v" "+7844"
"C1868n" "NCSU_Analog_Parts_pcapacitor_ivpcell"
"C1869v" "+7842"
"C1869n" "NCSU_Analog_Parts_pcapacitor_ivpcell"
"C1870v" "+7841"
"C1870n" "NCSU_Analog_Parts_pcapacitor_ivpcell"
"C1871v" "+7840"
"C1871n" "NCSU_Analog_Parts_pcapacitor_ivpcell"
"C1872v" "+7839"
"C1872n" "NCSU_Analog_Parts_pcapacitor_ivpcell"
"C1873v" "+7838"
"C1873n" "NCSU_Analog_Parts_pcapacitor_ivpcell"
"C1874v" "+7837"
"C1874n" "NCSU_Analog_Parts_pcapacitor_ivpcell"
"C1875v" "+7836"
"C1875n" "NCSU_Analog_Parts_pcapacitor_ivpcell"
"C1876v" "+7835"
"C1876n" "NCSU_Analog_Parts_pcapacitor_ivpcell"
"C1877v" "+7834"
"C1877n" "NCSU_Analog_Parts_pcapacitor_ivpcell"
"C1878v" "+7833"
"C1878n" "NCSU_Analog_Parts_pcapacitor_ivpcell"
"C1879v" "+7832"
"C1879n" "NCSU_Analog_Parts_pcapacitor_ivpcell"
"C1880v" "+7831"
"C1880n" "NCSU_Analog_Parts_pcapacitor_ivpcell"
"C1881v" "+7830"
"C1881n" "NCSU_Analog_Parts_pcapacitor_ivpcell"
"C1882v" "+7829"
"C1882n" "NCSU_Analog_Parts_pcapacitor_ivpcell"
"C1883v" "+7828"
"C1883n" "NCSU_Analog_Parts_pcapacitor_ivpcell"
"C1884v" "+7827"
"C1884n" "NCSU_Analog_Parts_pcapacitor_ivpcell"
"C1885v" "+7826"
"C1885n" "NCSU_Analog_Parts_pcapacitor_ivpcell"
"C1886v" "+7824"
"C1886n" "NCSU_Analog_Parts_pcapacitor_ivpcell"
"C1887v" "+7823"
"C1887n" "NCSU_Analog_Parts_pcapacitor_ivpcell"
"C1888v" "+7822"
"C1888n" "NCSU_Analog_Parts_pcapacitor_ivpcell"
"C1889v" "+7821"
"C1889n" "NCSU_Analog_Parts_pcapacitor_ivpcell"
"C1890v" "+7820"
"C1890n" "NCSU_Analog_Parts_pcapacitor_ivpcell"
"C1891v" "+7819"
"C1891n" "NCSU_Analog_Parts_pcapacitor_ivpcell"
"C1892v" "+7818"
"C1892n" "NCSU_Analog_Parts_pcapacitor_ivpcell"
"C1893v" "+7817"
"C1893n" "NCSU_Analog_Parts_pcapacitor_ivpcell"
"C1894v" "+7816"
"C1894n" "NCSU_Analog_Parts_pcapacitor_ivpcell"
"C1895v" "+7815"
"C1895n" "NCSU_Analog_Parts_pcapacitor_ivpcell"
"C1896v" "+7814"
"C1896n" "NCSU_Analog_Parts_pcapacitor_ivpcell"
"C1897v" "+7813"
"C1897n" "NCSU_Analog_Parts_pcapacitor_ivpcell"
"C1898v" "+7812"
"C1898n" "NCSU_Analog_Parts_pcapacitor_ivpcell"
"C1899v" "+7811"
"C1899n" "NCSU_Analog_Parts_pcapacitor_ivpcell"
"C1900v" "+7810"
"C1900n" "NCSU_Analog_Parts_pcapacitor_ivpcell"
"C1901v" "+7809"
"C1901n" "NCSU_Analog_Parts_pcapacitor_ivpcell"
"C1902v" "+7808"
"C1902n" "NCSU_Analog_Parts_pcapacitor_ivpcell"
"C1903v" "+7807"
"C1903n" "NCSU_Analog_Parts_pcapacitor_ivpcell"
"C1904v" "+7806"
"C1904n" "NCSU_Analog_Parts_pcapacitor_ivpcell"
"C1905v" "+7805"
"C1905n" "NCSU_Analog_Parts_pcapacitor_ivpcell"
"C1906v" "+7804"
"C1906n" "NCSU_Analog_Parts_pcapacitor_ivpcell"
"C1907v" "+7803"
"C1907n" "NCSU_Analog_Parts_pcapacitor_ivpcell"
"C1908v" "+7802"
"C1908n" "NCSU_Analog_Parts_pcapacitor_ivpcell"
"C1909v" "+7801"
"C1909n" "NCSU_Analog_Parts_pcapacitor_ivpcell"
"C1910v" "+7800"
"C1910n" "NCSU_Analog_Parts_pcapacitor_ivpcell"
"C1911v" "+7798"
"C1911n" "NCSU_Analog_Parts_pcapacitor_ivpcell"
"C1912v" "+7797"
"C1912n" "NCSU_Analog_Parts_pcapacitor_ivpcell"
"C1913v" "+7790"
"C1913n" "NCSU_Analog_Parts_pcapacitor_ivpcell"
"C1914v" "+7789"
"C1914n" "NCSU_Analog_Parts_pcapacitor_ivpcell"
"C1915v" "+7788"
"C1915n" "NCSU_Analog_Parts_pcapacitor_ivpcell"
"C1916v" "+7787"
"C1916n" "NCSU_Analog_Parts_pcapacitor_ivpcell"
"C1917v" "+7786"
"C1917n" "NCSU_Analog_Parts_pcapacitor_ivpcell"
"C1918v" "+7785"
"C1918n" "NCSU_Analog_Parts_pcapacitor_ivpcell"
"C1919v" "+7784"
"C1919n" "NCSU_Analog_Parts_pcapacitor_ivpcell"
"C1920v" "+7783"
"C1920n" "NCSU_Analog_Parts_pcapacitor_ivpcell"
"C1921v" "+7782"
"C1921n" "NCSU_Analog_Parts_pcapacitor_ivpcell"
"C1922v" "+7781"
"C1922n" "NCSU_Analog_Parts_pcapacitor_ivpcell"
"C1923v" "+7780"
"C1923n" "NCSU_Analog_Parts_pcapacitor_ivpcell"
"C1924v" "+7779"
"C1924n" "NCSU_Analog_Parts_pcapacitor_ivpcell"
"C1925v" "+7778"
"C1925n" "NCSU_Analog_Parts_pcapacitor_ivpcell"
"C1926v" "+7777"
"C1926n" "NCSU_Analog_Parts_pcapacitor_ivpcell"
"C1927v" "+7776"
"C1927n" "NCSU_Analog_Parts_pcapacitor_ivpcell"
"C1928v" "+7775"
"C1928n" "NCSU_Analog_Parts_pcapacitor_ivpcell"
"C1929v" "+7773"
"C1929n" "NCSU_Analog_Parts_pcapacitor_ivpcell"
"C1930v" "+7766"
"C1930n" "NCSU_Analog_Parts_pcapacitor_ivpcell"
"C1931v" "+7765"
"C1931n" "NCSU_Analog_Parts_pcapacitor_ivpcell"
"C1932v" "+7764"
"C1932n" "NCSU_Analog_Parts_pcapacitor_ivpcell"
"C1933v" "+7762"
"C1933n" "NCSU_Analog_Parts_pcapacitor_ivpcell"
"C1934v" "+7761"
"C1934n" "NCSU_Analog_Parts_pcapacitor_ivpcell"
"C1935v" "+7760"
"C1935n" "NCSU_Analog_Parts_pcapacitor_ivpcell"
"C1936v" "+7759"
"C1936n" "NCSU_Analog_Parts_pcapacitor_ivpcell"
"C1937v" "+7758"
"C1937n" "NCSU_Analog_Parts_pcapacitor_ivpcell"
"C1938v" "+7751"
"C1938n" "NCSU_Analog_Parts_pcapacitor_ivpcell"
"C1939v" "+7750"
"C1939n" "NCSU_Analog_Parts_pcapacitor_ivpcell"
"C1940v" "+7749"
"C1940n" "NCSU_Analog_Parts_pcapacitor_ivpcell"
"C1941v" "+7748"
"C1941n" "NCSU_Analog_Parts_pcapacitor_ivpcell"
"C1942v" "+7747"
"C1942n" "NCSU_Analog_Parts_pcapacitor_ivpcell"
"C1943v" "+7746"
"C1943n" "NCSU_Analog_Parts_pcapacitor_ivpcell"
"C1944v" "+7745"
"C1944n" "NCSU_Analog_Parts_pcapacitor_ivpcell"
"C1945v" "+7744"
"C1945n" "NCSU_Analog_Parts_pcapacitor_ivpcell"
"C1946v" "+7743"
"C1946n" "NCSU_Analog_Parts_pcapacitor_ivpcell"
"C1947v" "+7742"
"C1947n" "NCSU_Analog_Parts_pcapacitor_ivpcell"
"C1948v" "+7741"
"C1948n" "NCSU_Analog_Parts_pcapacitor_ivpcell"
"C1949v" "+7740"
"C1949n" "NCSU_Analog_Parts_pcapacitor_ivpcell"
"C1950v" "+7732"
"C1950n" "NCSU_Analog_Parts_pcapacitor_ivpcell"
"C1951v" "+7731"
"C1951n" "NCSU_Analog_Parts_pcapacitor_ivpcell"
"C1952v" "+7730"
"C1952n" "NCSU_Analog_Parts_pcapacitor_ivpcell"
"C1953v" "+7729"
"C1953n" "NCSU_Analog_Parts_pcapacitor_ivpcell"
"C1954v" "+7726"
"C1954n" "NCSU_Analog_Parts_pcapacitor_ivpcell"
"C1955v" "+7725"
"C1955n" "NCSU_Analog_Parts_pcapacitor_ivpcell"
"C1956v" "+7724"
"C1956n" "NCSU_Analog_Parts_pcapacitor_ivpcell"
"C1957v" "+7717"
"C1957n" "NCSU_Analog_Parts_pcapacitor_ivpcell"
"C1958v" "+7716"
"C1958n" "NCSU_Analog_Parts_pcapacitor_ivpcell"
"C1959v" "+7715"
"C1959n" "NCSU_Analog_Parts_pcapacitor_ivpcell"