HEADER
"PSFversion" "1.00"
"OUT_XOR21v" "OUT_XOR21"
"B_INv" "B_IN"
"VDv" "VD"
"GDv" "GD"
"A_INv" "A_IN"
"6v" "1"
"7v" "2"
"8v" "3"
"9v" "4"
"10v" "5"
