HEADER
"PSFversion" "1.00"
"OUT_XOR21v" "OUT_XOR21"
"B_INv" "B_IN"
"VDv" "VD"
"GDv" "GD"
"A_INv" "A_IN"
"1v" "6"
"2v" "7"
"3v" "8"
"4v" "9"
"5v" "10"
