HEADER
"PSFversion" "1.00"
"C6v" "+43"
"C6n" "NCSU_Analog_Parts_pcapacitor_ivpcell"
"C7v" "+42"
"C7n" "NCSU_Analog_Parts_pcapacitor_ivpcell"
"C8v" "+41"
"C8n" "NCSU_Analog_Parts_pcapacitor_ivpcell"
"C9v" "+40"
"C9n" "NCSU_Analog_Parts_pcapacitor_ivpcell"
"C10v" "+39"
"C10n" "NCSU_Analog_Parts_pcapacitor_ivpcell"
"C11v" "+38"
"C11n" "NCSU_Analog_Parts_pcapacitor_ivpcell"
"C12v" "+37"
"C12n" "NCSU_Analog_Parts_pcapacitor_ivpcell"
"C13v" "+36"
"C13n" "NCSU_Analog_Parts_pcapacitor_ivpcell"
"C14v" "+35"
"C14n" "NCSU_Analog_Parts_pcapacitor_ivpcell"
"C15v" "+34"
"C15n" "NCSU_Analog_Parts_pcapacitor_ivpcell"
"C16v" "+33"
"C16n" "NCSU_Analog_Parts_pcapacitor_ivpcell"
"C17v" "+32"
"C17n" "NCSU_Analog_Parts_pcapacitor_ivpcell"
"C18v" "+31"
"C18n" "NCSU_Analog_Parts_pcapacitor_ivpcell"
"C19v" "+30"
"C19n" "NCSU_Analog_Parts_pcapacitor_ivpcell"
"C20v" "+29"
"C20n" "NCSU_Analog_Parts_pcapacitor_ivpcell"
"C21v" "+28"
"C21n" "NCSU_Analog_Parts_pcapacitor_ivpcell"
"C22v" "+27"
"C22n" "NCSU_Analog_Parts_pcapacitor_ivpcell"
"C23v" "+26"
"C23n" "NCSU_Analog_Parts_pcapacitor_ivpcell"
"C24v" "+25"
"C24n" "NCSU_Analog_Parts_pcapacitor_ivpcell"
"C25v" "+24"
"C25n" "NCSU_Analog_Parts_pcapacitor_ivpcell"
"C26v" "+23"
"C26n" "NCSU_Analog_Parts_pcapacitor_ivpcell"
"C27v" "+22"
"C27n" "NCSU_Analog_Parts_pcapacitor_ivpcell"
"C28v" "+21"
"C28n" "NCSU_Analog_Parts_pcapacitor_ivpcell"
"C29v" "+20"
"C29n" "NCSU_Analog_Parts_pcapacitor_ivpcell"
"C30v" "+19"
"C30n" "NCSU_Analog_Parts_pcapacitor_ivpcell"
"C31v" "+18"
"C31n" "NCSU_Analog_Parts_pcapacitor_ivpcell"
"C32v" "+17"
"C32n" "NCSU_Analog_Parts_pcapacitor_ivpcell"
"C33v" "+16"
"C33n" "NCSU_Analog_Parts_pcapacitor_ivpcell"
"C34v" "+15"
"C34n" "NCSU_Analog_Parts_pcapacitor_ivpcell"
"C35v" "+14"
"C35n" "NCSU_Analog_Parts_pcapacitor_ivpcell"
"C36v" "+13"
"C36n" "NCSU_Analog_Parts_pcapacitor_ivpcell"
"C37v" "+12"
"C37n" "NCSU_Analog_Parts_pcapacitor_ivpcell"
"M38v" "+6"
"M38n" "NCSU_Analog_Parts_pmos4_ivpcell"
"M39v" "+7"
"M39n" "NCSU_Analog_Parts_pmos4_ivpcell"
"M40v" "+8"
"M40n" "NCSU_Analog_Parts_pmos4_ivpcell"
"M41v" "+9"
"M41n" "NCSU_Analog_Parts_pmos4_ivpcell"
"M42v" "+10"
"M42n" "NCSU_Analog_Parts_pmos4_ivpcell"
"M43v" "+11"
"M43n" "NCSU_Analog_Parts_pmos4_ivpcell"
"M44v" "+0"
"M44n" "NCSU_Analog_Parts_nmos4_ivpcell"
"M45v" "+1"
"M45n" "NCSU_Analog_Parts_nmos4_ivpcell"
"M46v" "+2"
"M46n" "NCSU_Analog_Parts_nmos4_ivpcell"
"M47v" "+3"
"M47n" "NCSU_Analog_Parts_nmos4_ivpcell"
"M48v" "+4"
"M48n" "NCSU_Analog_Parts_nmos4_ivpcell"
"M49v" "+5"
"M49n" "NCSU_Analog_Parts_nmos4_ivpcell"
