HEADER
"PSFversion" "1.00"
"+43v" "C6"
"+43n" "NCSU_Analog_Parts_pcapacitor_ivpcell"
"+42v" "C7"
"+42n" "NCSU_Analog_Parts_pcapacitor_ivpcell"
"+41v" "C8"
"+41n" "NCSU_Analog_Parts_pcapacitor_ivpcell"
"+40v" "C9"
"+40n" "NCSU_Analog_Parts_pcapacitor_ivpcell"
"+39v" "C10"
"+39n" "NCSU_Analog_Parts_pcapacitor_ivpcell"
"+38v" "C11"
"+38n" "NCSU_Analog_Parts_pcapacitor_ivpcell"
"+37v" "C12"
"+37n" "NCSU_Analog_Parts_pcapacitor_ivpcell"
"+36v" "C13"
"+36n" "NCSU_Analog_Parts_pcapacitor_ivpcell"
"+35v" "C14"
"+35n" "NCSU_Analog_Parts_pcapacitor_ivpcell"
"+34v" "C15"
"+34n" "NCSU_Analog_Parts_pcapacitor_ivpcell"
"+33v" "C16"
"+33n" "NCSU_Analog_Parts_pcapacitor_ivpcell"
"+32v" "C17"
"+32n" "NCSU_Analog_Parts_pcapacitor_ivpcell"
"+31v" "C18"
"+31n" "NCSU_Analog_Parts_pcapacitor_ivpcell"
"+30v" "C19"
"+30n" "NCSU_Analog_Parts_pcapacitor_ivpcell"
"+29v" "C20"
"+29n" "NCSU_Analog_Parts_pcapacitor_ivpcell"
"+28v" "C21"
"+28n" "NCSU_Analog_Parts_pcapacitor_ivpcell"
"+27v" "C22"
"+27n" "NCSU_Analog_Parts_pcapacitor_ivpcell"
"+26v" "C23"
"+26n" "NCSU_Analog_Parts_pcapacitor_ivpcell"
"+25v" "C24"
"+25n" "NCSU_Analog_Parts_pcapacitor_ivpcell"
"+24v" "C25"
"+24n" "NCSU_Analog_Parts_pcapacitor_ivpcell"
"+23v" "C26"
"+23n" "NCSU_Analog_Parts_pcapacitor_ivpcell"
"+22v" "C27"
"+22n" "NCSU_Analog_Parts_pcapacitor_ivpcell"
"+21v" "C28"
"+21n" "NCSU_Analog_Parts_pcapacitor_ivpcell"
"+20v" "C29"
"+20n" "NCSU_Analog_Parts_pcapacitor_ivpcell"
"+19v" "C30"
"+19n" "NCSU_Analog_Parts_pcapacitor_ivpcell"
"+18v" "C31"
"+18n" "NCSU_Analog_Parts_pcapacitor_ivpcell"
"+17v" "C32"
"+17n" "NCSU_Analog_Parts_pcapacitor_ivpcell"
"+16v" "C33"
"+16n" "NCSU_Analog_Parts_pcapacitor_ivpcell"
"+15v" "C34"
"+15n" "NCSU_Analog_Parts_pcapacitor_ivpcell"
"+14v" "C35"
"+14n" "NCSU_Analog_Parts_pcapacitor_ivpcell"
"+13v" "C36"
"+13n" "NCSU_Analog_Parts_pcapacitor_ivpcell"
"+12v" "C37"
"+12n" "NCSU_Analog_Parts_pcapacitor_ivpcell"
"+6v" "M38"
"+6n" "NCSU_Analog_Parts_pmos4_ivpcell"
"+7v" "M39"
"+7n" "NCSU_Analog_Parts_pmos4_ivpcell"
"+8v" "M40"
"+8n" "NCSU_Analog_Parts_pmos4_ivpcell"
"+9v" "M41"
"+9n" "NCSU_Analog_Parts_pmos4_ivpcell"
"+10v" "M42"
"+10n" "NCSU_Analog_Parts_pmos4_ivpcell"
"+11v" "M43"
"+11n" "NCSU_Analog_Parts_pmos4_ivpcell"
"+0v" "M44"
"+0n" "NCSU_Analog_Parts_nmos4_ivpcell"
"+1v" "M45"
"+1n" "NCSU_Analog_Parts_nmos4_ivpcell"
"+2v" "M46"
"+2n" "NCSU_Analog_Parts_nmos4_ivpcell"
"+3v" "M47"
"+3n" "NCSU_Analog_Parts_nmos4_ivpcell"
"+4v" "M48"
"+4n" "NCSU_Analog_Parts_nmos4_ivpcell"
"+5v" "M49"
"+5n" "NCSU_Analog_Parts_nmos4_ivpcell"
