HEADER
"PSFversion" "1.00"
"__NEXT_FILE__" "Proj_lib_XOR21_StaticCMOS_extracted"
