HEADER
"PSFversion" "1.00"
"N3v" "MN3"
"N3n" "NCSU_Analog_Parts_nmos4_symbol"
"N2v" "MN2"
"N2n" "NCSU_Analog_Parts_nmos4_symbol"
"N1v" "MN1"
"N1n" "NCSU_Analog_Parts_nmos4_symbol"
"N0v" "MN0"
"N0n" "NCSU_Analog_Parts_nmos4_symbol"
"P1v" "MP1"
"P1n" "NCSU_Analog_Parts_pmos4_symbol"
"P0v" "MP0"
"P0n" "NCSU_Analog_Parts_pmos4_symbol"
