HEADER
"PSFversion" "1.00"
"net13v" "net13"
"net14v" "net14"
"net18v" "net18"
"clkv" "clk"
"VDv" "VD"
"GDv" "GD"
"Q_OUTv" "Q_OUT"
"D_inv" "D_in"
