HEADER
"PSFversion" "1.00"
"__NEXT_FILE__" "Proj_lib_Doubled_C2MOS_Latch_schematic"
