HEADER
"PSFversion" "1.00"
"0v" "gnd!"
"vdd!v" "vdd!"
"__NEXT_FILE__" "Proj_lib_AND21_StaticCMOS_schematic"
