HEADER
"PSFversion" "1.00"
"clkv" "clk"
"GDv" "GD"
"D_INv" "D_IN"
"net100v" "net100"
"VDv" "VD"
"net093v" "net093"
"net96v" "net96"
"net84v" "net84"
"net67v" "net67"
"net75v" "net75"
"net80v" "net80"
"Q_OUTv" "Q_OUT"
