HEADER
"PSFversion" "1.00"
"__NEXT_FILE__" "Proj_lib_TSPC_FF_PositveEdge_schematic"
