HEADER
"PSFversion" "1.00"
"net044v" "net044"
"net29v" "net29"
"net21v" "net21"
"net23v" "net23"
"net8v" "net8"
"A_INv" "A_IN"
"B_INv" "B_IN"
"OUT_XOR21v" "OUT_XOR21"
