HEADER
"PSFversion" "1.00"
"Inv" "In"
"Outv" "Out"
