HEADER
"PSFversion" "1.00"
"INv" "IN"
"OUTv" "OUT"
