HEADER
"PSFversion" "1.00"
"P0v" "MP0"
"P0n" "NCSU_Analog_Parts_pmos4_symbol"
"N1v" "MN1"
"N1n" "NCSU_Analog_Parts_nmos4_symbol"
