HEADER
"PSFversion" "1.00"
"0v" "gnd!"
"vdd!v" "vdd!"
"__NEXT_FILE__" "hw1_Inverter_schematic"
