HEADER
"PSFversion" "1.00"
"gnd!v" "0"
"vdd!v" "vdd!"
"__NEXT_FILE__" "hw1_Inverter_schematic"
