HEADER
"PSFversion" "1.00"
"I4v" "XI4"
"I4n" "hw1_Inverter_180nm_schematic"
"I3v" "XI3"
"I3n" "hw1_Inverter_180nm_schematic"
"I2v" "XI2"
"I2n" "hw1_Inverter_180nm_schematic"
"I1v" "XI1"
"I1n" "hw1_Inverter_180nm_schematic"
"I0v" "XI0"
"I0n" "hw1_Inverter_180nm_schematic"
