HEADER
"PSFversion" "1.00"
"XI4v" "I4"
"XI4n" "hw1_Inverter_180nm_schematic"
"XI3v" "I3"
"XI3n" "hw1_Inverter_180nm_schematic"
"XI2v" "I2"
"XI2n" "hw1_Inverter_180nm_schematic"
"XI1v" "I1"
"XI1n" "hw1_Inverter_180nm_schematic"
"XI0v" "I0"
"XI0n" "hw1_Inverter_180nm_schematic"
