HEADER
"PSFversion" "1.00"
"Inv" "In"
"Out<2>v" "Out_2"
"Out_invv" "Out_inv"
"Out<0>v" "Out_0"
"Out<1>v" "Out_1"
"Out<3>v" "Out_3"
"Out<0>v" "Out_0"
"Out<1>v" "Out_1"
"Out<2>v" "Out_2"
"Out<3>v" "Out_3"
