HEADER
"PSFversion" "1.00"
"Inv" "In"
"Out_2v" "Out<2>"
"Out_invv" "Out_inv"
"Out_0v" "Out<0>"
"Out_1v" "Out<1>"
"Out_3v" "Out<3>"
"Out_0v" "Out<0>"
"Out_1v" "Out<1>"
"Out_2v" "Out<2>"
"Out_3v" "Out<3>"
