HEADER
"PSFversion" "1.00"
"design" "(\"hw1\" \"CMOS_NOR_180nm\" \"schematic\" \"\")"
"simulator" "hspiceS"
"temperature" "25"
"host" ""
"date" "Oct 25 21:33:30 2014"
"title" ""
"analysisList" "()"
END
